# vtk DataFile Version 2.0
Radiative paths
ASCII
DATASET POLYDATA
POINTS 331 float
-5.458759 -6.620913 -0.866732
-0.155458 -1.317612 -0.866732
-3.380391 5.390302 0.057230
-7.591362 -0.482745 3.656668
-2.288061 4.820556 3.656668
-7.797515 3.608421 -1.285664
-6.784462 -9.382475 -2.656861
-1.481161 -4.079175 -2.656861
-0.317875 1.497717 -1.686072
-3.623808 7.833803 0.588750
-5.784142 -7.234639 1.990827
-0.480841 -1.931338 1.990827
-2.360107 5.105958 0.203421
-5.863167 -6.550483 -2.720734
-0.559866 -1.247182 -2.720734
-3.110354 5.280507 -0.049725
-7.366276 -8.720083 -4.618789
-2.062975 -3.416782 -4.618789
-0.910035 2.832287 -2.557092
-4.565994 8.095216 1.339770
-6.084921 -8.692651 1.009077
-0.781621 -3.389350 1.009077
-0.616658 3.108998 0.447950
-5.723434 8.520492 -0.493627
-6.651381 -2.024141 3.288829
-1.348080 3.279160 3.288829
-7.229499 3.997900 -1.309250
-5.329260 -4.710725 -0.253365
-0.025959 0.592576 -0.253365
-6.041456 5.057471 0.105108
-6.273120 -3.274410 -3.376494
-0.969819 2.028890 -3.376494
-6.368361 4.618083 1.140344
-5.446473 -5.943885 -1.371280
-0.143172 -0.640584 -1.371280
-4.259995 5.417015 0.243423
-6.152524 -5.575136 3.676095
-0.849223 -0.271835 3.676095
-3.997747 5.318653 -0.207619
-7.709461 -1.046978 -4.514674
-2.406160 4.256322 -4.514674
-7.249181 4.161371 1.211243
-6.558402 -8.868411 -2.715072
-1.255102 -3.565110 -2.715072
-0.554373 2.612921 -1.429199
-4.890808 8.224012 1.012315
-5.314928 -5.605437 -0.307817
-0.011627 -0.302136 -0.307817
-4.884767 5.385499 0.083743
-7.009381 -8.206167 -4.344035
-1.706080 -2.902866 -4.344035
-1.159004 3.885078 -1.857482
-5.832742 8.362782 1.931495
-6.925382 -0.973484 2.684398
-1.622082 4.329817 2.684398
-7.949478 3.338269 -1.218279
-5.600877 -3.903940 -1.674218
-0.297576 1.399361 -1.674218
-6.593288 4.673761 0.753191
-6.169511 -8.575151 1.776052
-0.866210 -3.271850 1.776052
-0.732013 3.337823 0.755742
-5.880524 8.537660 -0.888804
-5.831161 -5.474090 -2.901137
-0.527860 -0.170789 -2.901137
-4.394600 5.328279 0.424306
-6.965447 -7.791057 4.517234
-1.662146 -2.487756 4.517234
-1.516161 4.695764 1.486062
-6.675293 8.493899 -2.413620
-5.655140 -6.172946 -2.207521
-0.351840 -0.869645 -2.207521
-3.737834 5.378231 0.190204
-6.373804 -1.173787 -0.274156
-1.070503 4.129514 -0.274156
-8.453609 2.884228 0.160601
-7.653905 -1.554346 4.853349
-2.350604 3.748955 4.853349
-6.858692 4.454449 -1.098913
-6.344213 -1.261329 0.563074
-1.040912 4.041972 0.563074
-8.406391 2.944416 -0.328608
-6.925403 -10.218554 1.339373
-1.622102 -4.915253 1.339373
-0.072036 -0.322891 1.023873
-1.063136 4.103632 0.412774
-5.918214 9.699511 -0.755281
-6.719578 -6.750353 -4.535028
-1.416277 -1.447052 -4.535028
-2.529238 5.016832 -0.897787
-7.615411 -9.751095 4.148600
-2.312110 -4.447794 4.148600
-0.594787 0.708735 3.002381
-2.375928 7.308112 -0.084003
-6.676065 -7.659064 4.051494
-1.372764 -2.355763 4.051494
-1.640727 4.588110 1.230001
-5.806256 -7.990096 -0.910169
-0.502955 -2.686795 -0.910169
-1.474730 4.854009 -0.185173
-7.575825 9.136062 0.645889
-7.181054 -9.373469 -3.671210
-1.877754 -4.070168 -3.671210
-0.499709 1.502460 -2.395404
-3.373814 7.739880 0.618582
-5.739126 -4.216929 -2.406864
-0.435825 1.086372 -2.406864
-5.995839 4.914473 0.861451
-5.867524 -4.720159 -2.947459
-0.564223 0.583142 -2.947459
-5.233920 5.159483 0.726916
-6.790978 -1.539246 -3.103987
-1.487678 3.764055 -3.103987
-7.553179 3.718257 1.307090
-6.419549 -5.265281 4.225935
-1.116248 0.038019 4.225935
-4.144841 5.301724 -0.175320
-7.567397 -1.183240 4.387554
-2.264096 4.120061 4.387554
-7.221866 4.138832 -1.240071
-5.876129 -6.705625 2.683046
-0.572828 -1.402324 2.683046
-2.921130 5.242230 0.116846
-5.665803 -4.067838 2.067286
-0.362502 1.235463 2.067286
-6.286344 4.804924 -0.833928
-6.194513 -3.071375 -3.045964
-0.891212 2.231926 -3.045964
-6.681886 4.440110 1.178017
-6.171738 -4.515000 -3.643292
-0.868437 0.788301 -3.643292
-5.138435 5.148272 0.716498
-6.715131 -6.241829 4.659232
-1.411830 -0.938528 4.659232
-3.028390 5.176583 0.629077
-6.870150 -8.265970 4.036356
-1.566849 -2.962669 4.036356
-1.085521 3.793273 1.726100
-5.834119 8.382970 -1.828545
-5.904092 -3.334545 -2.395133
-0.600791 1.968756 -2.395133
-6.788408 4.444206 1.045151
-6.835156 -9.997541 -1.572827
-1.531855 -4.694241 -1.572827
-0.084371 0.164058 -1.150224
-1.551118 4.972265 -0.307356
-6.867498 10.084240 1.054193
-5.854909 -6.842414 2.541034
-0.551608 -1.539114 2.541034
-2.776202 5.212473 0.149954
-5.691906 -7.314725 1.473720
-0.388605 -2.011425 1.473720
-2.322050 5.111397 0.140603
-6.997378 -10.063851 -2.107697
-1.694077 -4.760550 -2.107697
-0.154553 0.019767 -1.572406
-1.357076 4.629867 -0.526834
-6.413005 9.862392 1.292026
-5.937141 -4.450115 3.068146
-0.633841 0.853186 3.068146
-5.462764 5.075903 -0.817747
-6.428955 -2.234075 -2.930925
-1.125654 3.069226 -2.930925
-7.275220 3.978597 1.265011
-6.157577 -6.124634 3.604695
-0.854276 -0.821333 3.604695
-3.393675 5.287152 0.070877
-5.796517 -2.525667 0.419775
-0.493216 2.777633 0.419775
-7.910655 3.664240 -0.247706
-5.757213 -7.987607 0.238961
-0.453912 -2.684306 0.238961
-1.502060 4.902127 0.045843
-7.651857 9.189585 -0.172578
-5.506205 -4.230225 -1.447404
-0.202904 1.073076 -1.447404
-6.348175 4.840729 0.623935
-8.230585 -9.989591 -4.987508
-2.927284 -4.686290 -4.987508
-0.926488 0.224052 -3.843645
-1.432587 4.452084 -1.760778
-5.468171 9.341314 2.246650
-5.862357 -2.415282 0.777339
-0.559057 2.888018 0.777339
-7.921191 3.619068 -0.453328
-7.393368 -10.143706 -3.164103
-2.090067 -4.840405 -3.164103
-0.370646 -0.145451 -2.430879
-1.157379 4.173675 -1.048094
-5.688304 9.516394 1.630726
-6.277772 -1.858360 -1.929745
-0.974471 3.444941 -1.929745
-7.872662 3.494065 1.013476
-6.554825 -5.990662 -4.421756
-1.251524 -0.687361 -4.421756
-3.332960 5.250437 -0.340068
-5.454732 -3.750615 -0.109865
-0.151431 1.552686 -0.109865
-7.051335 4.487519 0.057723
-6.074931 -2.535867 2.165038
-0.771630 2.767434 2.165038
-7.435506 3.930938 -1.073636
-5.578920 -7.304573 0.636255
-0.275619 -2.001272 0.636255
-2.412891 5.163355 0.044492
-5.615061 -3.872804 -1.715179
-0.311760 1.430497 -1.715179
-6.607611 4.659729 0.771649
-5.513774 -6.147884 1.629188
-0.210473 -0.844583 1.629188
-3.919776 5.410204 -0.206215
-7.590451 -9.261094 4.574962
-2.287150 -3.957793 4.574962
-0.745529 1.732911 2.987554
-3.369202 7.744540 -0.649294
-5.602601 -6.067777 -2.050459
-0.299300 -0.764476 -2.050459
-3.921210 5.391714 0.237138
-8.032452 -0.760680 4.799064
-2.729151 4.542621 4.799064
-7.310796 4.232977 -1.130747
-5.571937 -3.342455 0.673249
-0.268636 1.960846 0.673249
-7.340567 4.230907 -0.368203
-5.886552 -3.265140 -2.275503
-0.583251 2.038161 -2.275503
-6.895152 4.382255 1.028301
-5.549830 -5.633539 1.958421
-0.246529 -0.330238 1.958421
-4.521652 5.368458 -0.386402
-5.543933 -3.769426 -1.223658
-0.240632 1.533875 -1.223658
-6.860320 4.551129 0.600049
-5.959327 -3.311656 -2.555341
-0.656026 1.991645 -2.555341
-6.733396 4.461664 1.079846
-6.608546 -1.896550 3.045977
-1.305245 3.406751 3.045977
-7.404515 3.854337 -1.295519
-5.841590 -3.810956 2.526961
-0.538289 1.492345 2.526961
-6.327442 4.726425 -0.976814
-5.864885 -7.344666 -2.195035
-0.561584 -2.041365 -2.195035
-2.185796 5.029634 -0.294268
-6.794565 -3.052318 4.335124
-1.491264 2.250983 4.335124
-6.088060 4.768665 -1.029645
-7.283131 -9.537848 3.707545
-1.979830 -4.234548 3.707545
-0.482812 1.155523 2.527798
-2.973601 7.583025 -0.427400
-6.200635 -7.891955 2.766987
-0.897334 -2.588654 2.766987
-1.468441 4.798174 0.687450
-7.272992 8.850078 -1.790303
-6.610352 -8.367823 3.394337
-1.307051 -3.064523 3.394337
-0.960644 3.645641 1.442085
-5.865729 8.433735 -1.601646
-7.074978 -3.266272 4.919081
-1.771678 2.037029 4.919081
-5.690892 4.992014 -0.751706
-5.431077 -6.509163 0.768323
-0.127776 -1.205862 0.768323
-3.553475 5.413185 -0.070013
-6.340018 -6.545582 -3.878688
-1.036717 -1.242281 -3.878688
-2.848808 5.165934 -0.428890
-7.054858 -0.665411 2.552429
-1.751557 4.637890 2.552429
-8.101193 3.185561 -1.165483
-6.018898 -3.011180 -2.489123
-0.715597 2.292121 -2.489123
-6.987122 4.279059 1.112273
-5.749663 -6.191360 -2.520545
-0.446362 -0.888059 -2.520545
-3.625672 5.356874 0.152055
-5.820099 -5.708864 2.846804
-0.516798 -0.405563 2.846804
-4.130341 5.349780 -0.326259
-5.341832 -5.723754 0.663115
-0.038531 -0.420453 0.663115
-4.688507 5.405958 -0.161906
-5.785680 -4.747449 -2.721964
-0.482379 0.555852 -2.721964
-5.301885 5.155805 0.722276
-6.922968 -10.096805 1.713768
-1.619667 -4.793504 1.713768
-0.102905 -0.053747 1.282028
-1.306533 4.551305 0.436070
-6.378385 9.872476 -1.051026
-5.597102 -3.303795 -0.838327
-0.293801 1.999506 -0.838327
-7.340953 4.215957 0.455888
-5.667433 -6.528564 2.079627
-0.364132 -1.225263 2.079627
-3.293504 5.338937 -0.060484
-6.437023 -6.627200 -4.048068
-1.133723 -1.323900 -4.048068
-2.727048 5.120707 -0.558316
-6.984728 -9.241019 3.375976
-1.681427 -3.937718 3.375976
-0.474717 1.786704 2.098371
-3.777829 7.881183 -0.764631
-5.655123 -5.143121 2.367169
-0.351822 0.160180 2.367169
-4.992836 5.264371 -0.575315
-5.394388 -4.310198 -0.686393
-0.091087 0.993103 -0.686393
-6.445601 4.849227 0.313837
-6.668809 -9.013225 2.843342
-1.365508 -3.709924 2.843342
-0.488003 2.291422 1.599198
-4.494458 8.109117 -0.921269
-5.427066 -5.481985 1.395819
-0.123765 -0.178684 1.395819
-4.878940 5.349278 -0.359157
-7.237463 -9.569348 3.570354
-1.934162 -4.266047 3.570354
-0.447541 1.088870 2.444385
-2.933647 7.565632 -0.405323
-5.513431 -4.444252 -1.619913
-0.210130 0.859048 -1.619913
-6.066152 4.964050 0.639729
-6.537377 -1.428423 2.174982
-1.234076 3.874878 2.174982
-7.962707 3.350396 -1.096172
-5.313212 -5.610029 0.253975
-0.009912 -0.306729 0.253975
-4.881332 5.386682 -0.069040
LINES 100 431
3 0 1 2
3 3 4 5
4 6 7 8 9
3 10 11 12
3 13 14 15
4 16 17 18 19
4 20 21 22 23
3 24 25 26
3 27 28 29
3 30 31 32
3 33 34 35
3 36 37 38
3 39 40 41
4 42 43 44 45
3 46 47 48
4 49 50 51 52
3 53 54 55
3 56 57 58
4 59 60 61 62
3 63 64 65
4 66 67 68 69
3 70 71 72
3 73 74 75
3 76 77 78
3 79 80 81
5 82 83 84 85 86
3 87 88 89
4 90 91 92 93
3 94 95 96
4 97 98 99 100
4 101 102 103 104
3 105 106 107
3 108 109 110
3 111 112 113
3 114 115 116
3 117 118 119
3 120 121 122
3 123 124 125
3 126 127 128
3 129 130 131
3 132 133 134
4 135 136 137 138
3 139 140 141
5 142 143 144 145 146
3 147 148 149
3 150 151 152
5 153 154 155 156 157
3 158 159 160
3 161 162 163
3 164 165 166
3 167 168 169
4 170 171 172 173
3 174 175 176
5 177 178 179 180 181
3 182 183 184
5 185 186 187 188 189
3 190 191 192
3 193 194 195
3 196 197 198
3 199 200 201
3 202 203 204
3 205 206 207
3 208 209 210
4 211 212 213 214
3 215 216 217
3 218 219 220
3 221 222 223
3 224 225 226
3 227 228 229
3 230 231 232
3 233 234 235
3 236 237 238
3 239 240 241
3 242 243 244
3 245 246 247
4 248 249 250 251
4 252 253 254 255
4 256 257 258 259
3 260 261 262
3 263 264 265
3 266 267 268
3 269 270 271
3 272 273 274
3 275 276 277
3 278 279 280
3 281 282 283
3 284 285 286
5 287 288 289 290 291
3 292 293 294
3 295 296 297
3 298 299 300
4 301 302 303 304
3 305 306 307
3 308 309 310
4 311 312 313 314
3 315 316 317
4 318 319 320 321
3 322 323 324
3 325 326 327
3 328 329 330
CELL_DATA 100
SCALARS Radiative_path_type float 1
LOOKUP_TABLE path_type
0.75
0.75
0.75
0.75
0.75
0.75
0.75
0.75
0.75
0.75
0.75
0.75
0.75
0.75
0.75
0.75
0.75
0.75
0.75
0.75
0.75
0.75
0.75
0.75
0.75
0.75
0.75
0.75
0.75
0.75
0.75
0.75
0.75
0.75
0.75
0.75
0.75
0.75
0.75
0.75
0.75
0.75
0.75
0.75
0.75
0.75
0.75
0.75
0.75
0.75
0.75
0.75
0.75
0.75
0.75
0.75
0.75
0.75
0.75
0.75
0.75
0.75
0.75
0.75
0.75
0.75
0.75
0.75
0.75
0.75
0.75
0.75
0.75
0.75
0.75
0.75
0.75
0.75
0.75
0.75
0.75
0.75
0.75
0.75
0.75
0.75
0.75
0.75
0.75
0.75
0.75
0.75
0.75
0.75
0.75
0.75
0.75
0.75
0.75
0.75
LOOKUP_TABLE path_type 5
1.0 0.0 0.0 1.0
0.0 1.0 0.0 1.0
0.0 0.0 1.0 1.0
0.0 1.0 1.0 1.0
1.0 1.0 0.0 1.0
