# vtk DataFile Version 2.0
Radiative paths
ASCII
DATASET POLYDATA
POINTS 299 float
-7.655458 -1.317612 -0.866732
-0.155458 -1.317612 -0.866732
-4.000000 0.000000 0.000000
-9.201448 3.437974 3.924730
-1.701448 3.437974 3.924730
-4.000000 0.000000 0.000000
-9.061745 4.349129 -2.464346
-1.561745 4.349129 -2.464346
-4.000000 0.000000 0.000000
-9.562975 -3.416782 -4.618789
-2.062975 -3.416782 -4.618789
-4.000000 0.000000 0.000000
-9.084420 1.943745 -4.644629
-1.584420 1.943745 -4.644629
-4.000000 0.000000 0.000000
-8.881294 -0.932600 -4.607707
-1.381294 -0.932600 -4.607707
-4.000000 0.000000 0.000000
-7.643172 -0.640584 -1.371280
-0.143172 -0.640584 -1.371280
-4.000000 0.000000 0.000000
-9.552618 -3.516932 4.524718
-2.052618 -3.516932 4.524718
-4.000000 0.000000 0.000000
-9.510777 -3.771660 -4.236391
-2.010777 -3.771660 -4.236391
-4.000000 0.000000 0.000000
-9.206080 -2.902866 -4.344035
-1.706080 -2.902866 -4.344035
-4.000000 0.000000 0.000000
-9.063496 -4.997540 -0.201333
-1.563496 -4.997540 -0.201333
-4.000000 0.000000 0.000000
-8.678021 3.967159 -1.763517
-1.178021 3.967159 -1.763517
-4.000000 -0.000000 0.000000
-9.162146 -2.487756 4.517234
-1.662146 -2.487756 4.517234
-4.000000 0.000000 0.000000
-7.747372 -0.138118 1.984659
-0.247372 -0.138118 1.984659
-4.000000 0.000000 0.000000
-8.144917 2.996413 1.157660
-0.644917 2.996413 1.157660
-4.000000 0.000000 0.000000
-9.122102 -4.915253 1.339373
-1.622102 -4.915253 1.339373
-4.000000 0.000000 0.000000
-9.637485 -4.704090 -3.474378
-2.137485 -4.704090 -3.474378
-4.000000 0.000000 0.000000
-8.827135 4.284339 1.696644
-1.327135 4.284339 1.696644
-4.000000 0.000000 0.000000
-9.377754 -4.070168 -3.671210
-1.877754 -4.070168 -3.671210
-4.000000 0.000000 0.000000
-8.206671 -3.206647 1.012005
-0.706671 -3.206647 1.012005
-4.000000 -0.000000 0.000000
-9.273201 -3.054059 -4.363937
-1.773201 -3.054059 -4.363937
-4.000000 0.000000 0.000000
-9.764096 4.120061 4.387554
-2.264096 4.120061 4.387554
-4.000000 0.000000 0.000000
-8.116294 -1.118000 2.934413
-0.616294 -1.118000 2.934413
-4.000000 0.000000 0.000000
-7.504252 0.033157 0.258724
-0.004252 0.033157 0.258724
-8.986162 4.794677 0.888631
-1.486162 4.794677 0.888631
-4.000000 0.000000 0.000000
-9.066849 -2.962669 4.036356
-1.566849 -2.962669 4.036356
-4.000000 0.000000 0.000000
-7.856260 1.960929 -1.361952
-0.356260 1.960929 -1.361952
-4.000000 0.000000 0.000000
-8.041058 -0.872855 2.809814
-0.541058 -0.872855 2.809814
-4.000000 0.000000 0.000000
-9.194077 -4.760550 -2.107697
-1.694077 -4.760550 -2.107697
-4.000000 0.000000 0.000000
-7.997687 -1.263919 -2.522994
-0.497687 -1.263919 -2.522994
-4.000000 0.000000 0.000000
-10.026569 3.987105 -4.952584
-2.526569 3.987105 -4.952584
-4.000000 -0.000000 0.000000
-7.953912 -2.684306 0.238961
-0.453912 -2.684306 0.238961
-4.000000 0.000000 0.000000
-8.818030 0.840302 4.514684
-1.318030 0.840302 4.514684
-4.000000 -0.000000 0.000000
-9.276348 -4.495186 2.866160
-1.776348 -4.495186 2.866160
-4.000000 0.000000 0.000000
-8.474471 3.444941 -1.929745
-0.974471 3.444941 -1.929745
-4.000000 0.000000 -0.000000
-7.682874 -1.527462 -0.769960
-0.182874 -1.527462 -0.769960
-4.000000 0.000000 0.000000
-9.849276 -4.898091 3.687428
-2.349276 -4.898091 3.687428
-4.000000 0.000000 -0.000000
-7.811760 1.430497 -1.715179
-0.311760 1.430497 -1.715179
-4.000000 0.000000 0.000000
-7.619773 -1.096515 -0.844999
-0.119773 -1.096515 -0.844999
-4.000000 0.000000 0.000000
-7.844591 2.298347 -0.480685
-0.344591 2.298347 -0.480685
-4.000000 0.000000 0.000000
-7.768636 1.960846 0.673249
-0.268636 1.960846 0.673249
-4.000000 0.000000 0.000000
-9.265185 3.372896 4.106888
-1.765185 3.372896 4.106888
-4.000000 0.000000 0.000000
-8.734517 2.350792 3.771743
-1.234517 2.350792 3.771743
-4.000000 0.000000 0.000000
-8.805245 3.406751 3.045977
-1.305245 3.406751 3.045977
-4.000000 0.000000 0.000000
-8.559139 1.344847 -3.890709
-1.059139 1.344847 -3.890709
-4.000000 0.000000 0.000000
-9.641728 4.038074 4.238113
-2.141728 4.038074 4.238113
-4.000000 0.000000 0.000000
-8.397334 -2.588654 2.766987
-0.897334 -2.588654 2.766987
-4.000000 0.000000 0.000000
-7.878923 -0.443526 2.421993
-0.378923 -0.443526 2.421993
-4.000000 0.000000 0.000000
-8.578653 -2.502530 3.315990
-1.078653 -2.502530 3.315990
-4.000000 0.000000 0.000000
-9.251557 4.637890 2.552429
-1.751557 4.637890 2.552429
-4.000000 0.000000 0.000000
-8.202972 3.244577 0.848692
-0.702972 3.244577 0.848692
-4.000000 0.000000 0.000000
-9.915578 -4.479979 4.310341
-2.415578 -4.479979 4.310341
-4.000000 0.000000 0.000000
-7.982379 0.555852 -2.721964
-0.482379 0.555852 -2.721964
-4.000000 0.000000 0.000000
-8.109347 0.531343 3.076885
-0.609347 0.531343 3.076885
-4.000000 0.000000 0.000000
-8.239100 -2.576033 2.278081
-0.739100 -2.576033 2.278081
-4.000000 0.000000 0.000000
-9.181427 -3.937718 3.375976
-1.681427 -3.937718 3.375976
-4.000000 0.000000 0.000000
-9.505723 -4.756636 -3.076684
-2.005723 -4.756636 -3.076684
-4.000000 0.000000 0.000000
-9.510792 -3.371358 4.561426
-2.010792 -3.371358 4.561426
-4.000000 -0.000000 0.000000
-9.434162 -4.266047 3.570354
-1.934162 -4.266047 3.570354
-4.000000 0.000000 0.000000
-8.421035 3.801062 -0.537116
-0.921035 3.801062 -0.537116
-4.000000 0.000000 0.000000
-7.777532 1.380037 -1.592485
-0.277532 1.380037 -1.592485
-4.000000 0.000000 0.000000
-7.707472 -0.007796 1.821948
-0.207472 -0.007796 1.821948
-4.000000 0.000000 0.000000
-8.080180 2.984942 -0.610735
-0.580180 2.984942 -0.610735
-4.000000 0.000000 0.000000
-8.370949 1.633118 3.356800
-0.870949 1.633118 3.356800
-4.000000 0.000000 -0.000000
-9.292731 -3.924872 -3.644046
-1.792731 -3.924872 -3.644046
-4.000000 0.000000 0.000000
-9.849458 -4.109548 4.550049
-2.349458 -4.109548 4.550049
-4.000000 -0.000000 0.000000
-8.469206 -1.421463 -3.672430
-0.969206 -1.421463 -3.672430
-4.000000 0.000000 0.000000
-8.452030 -1.976209 3.365571
-0.952030 -1.976209 3.365571
-4.000000 0.000000 0.000000
-7.980920 1.684350 -2.204016
-0.480920 1.684350 -2.204016
-4.000000 0.000000 0.000000
-8.771340 -4.382243 -1.066482
-1.271340 -4.382243 -1.066482
-4.000000 0.000000 0.000000
-8.669637 4.125175 1.302736
-1.169637 4.125175 1.302736
-4.000000 0.000000 0.000000
-9.214648 4.529757 -2.629767
-1.714648 4.529757 -2.629767
-4.000000 0.000000 0.000000
-8.995450 0.195564 -4.887633
-1.495450 0.195564 -4.887633
-4.000000 0.000000 0.000000
-8.382260 -0.681351 -3.694850
-0.882260 -0.681351 -3.694850
-4.000000 0.000000 0.000000
-9.675654 3.133234 -4.999331
-2.175654 3.133234 -4.999331
-4.000000 0.000000 0.000000
-7.769113 1.929403 0.763681
-0.269113 1.929403 0.763681
-4.000000 0.000000 0.000000
-8.326378 3.570172 0.689875
-0.826378 3.570172 0.689875
-4.000000 0.000000 0.000000
-7.991701 2.583368 -1.092437
-0.491701 2.583368 -1.092437
-4.000000 0.000000 0.000000
-8.202904 1.784296 -2.839498
-0.702904 1.784296 -2.839498
-4.000000 0.000000 0.000000
-10.240069 -4.379607 4.965898
-2.740069 -4.379607 4.965898
-4.000000 0.000000 0.000000
-9.699680 -4.911152 -3.327983
-2.199680 -4.911152 -3.327983
-4.000000 0.000000 0.000000
-8.231454 0.788812 -3.328819
-0.731454 0.788812 -3.328819
-4.000000 0.000000 0.000000
-8.175424 2.534238 -2.093902
-0.675424 2.534238 -2.093902
-4.000000 0.000000 0.000000
-8.117954 -1.435824 2.797439
-0.617954 -1.435824 2.797439
-4.000000 0.000000 0.000000
-8.734729 -2.287343 -3.811000
-1.234729 -2.287343 -3.811000
-4.000000 0.000000 0.000000
-8.847047 3.620156 2.906412
-1.347047 3.620156 2.906412
-4.000000 0.000000 0.000000
-8.179042 0.803998 -3.196600
-0.679042 0.803998 -3.196600
-4.000000 0.000000 0.000000
-9.000037 2.943059 -3.916503
-1.500037 2.943059 -3.916503
-4.000000 0.000000 0.000000
-7.895553 1.072412 2.275692
-0.395553 1.072412 2.275692
-4.000000 0.000000 0.000000
-7.718819 -1.321603 1.324561
-0.218819 -1.321603 1.324561
-4.000000 0.000000 0.000000
-8.843915 4.636897 0.042689
-1.343915 4.636897 0.042689
-4.000000 0.000000 0.000000
-8.034684 -0.336836 -2.905424
-0.534684 -0.336836 -2.905424
-4.000000 0.000000 0.000000
-8.515268 3.876708 -1.102460
-1.015268 3.876708 -1.102460
-4.000000 -0.000000 0.000000
-9.031722 0.562613 4.918436
-1.531722 0.562613 4.918436
-4.000000 0.000000 0.000000
-8.997982 -1.158046 -4.756747
-1.497982 -1.158046 -4.756747
-4.000000 0.000000 0.000000
-8.198776 1.526425 2.974969
-0.698776 1.526425 2.974969
-4.000000 0.000000 0.000000
-8.921006 4.735806 -0.555187
-1.421006 4.735806 -0.555187
-4.000000 0.000000 0.000000
-8.980117 1.389079 -4.663939
-1.480117 1.389079 -4.663939
-4.000000 0.000000 0.000000
-8.218940 0.681073 3.322526
-0.718940 0.681073 3.322526
-4.000000 0.000000 -0.000000
-9.640902 -4.885068 -3.223435
-2.140902 -4.885068 -3.223435
-4.000000 0.000000 0.000000
LINES 100 399
3 0 1 2
3 3 4 5
3 6 7 8
3 9 10 11
3 12 13 14
3 15 16 17
3 18 19 20
3 21 22 23
3 24 25 26
3 27 28 29
3 30 31 32
3 33 34 35
3 36 37 38
3 39 40 41
3 42 43 44
3 45 46 47
3 48 49 50
3 51 52 53
3 54 55 56
3 57 58 59
3 60 61 62
3 63 64 65
3 66 67 68
2 69 70
3 71 72 73
3 74 75 76
3 77 78 79
3 80 81 82
3 83 84 85
3 86 87 88
3 89 90 91
3 92 93 94
3 95 96 97
3 98 99 100
3 101 102 103
3 104 105 106
3 107 108 109
3 110 111 112
3 113 114 115
3 116 117 118
3 119 120 121
3 122 123 124
3 125 126 127
3 128 129 130
3 131 132 133
3 134 135 136
3 137 138 139
3 140 141 142
3 143 144 145
3 146 147 148
3 149 150 151
3 152 153 154
3 155 156 157
3 158 159 160
3 161 162 163
3 164 165 166
3 167 168 169
3 170 171 172
3 173 174 175
3 176 177 178
3 179 180 181
3 182 183 184
3 185 186 187
3 188 189 190
3 191 192 193
3 194 195 196
3 197 198 199
3 200 201 202
3 203 204 205
3 206 207 208
3 209 210 211
3 212 213 214
3 215 216 217
3 218 219 220
3 221 222 223
3 224 225 226
3 227 228 229
3 230 231 232
3 233 234 235
3 236 237 238
3 239 240 241
3 242 243 244
3 245 246 247
3 248 249 250
3 251 252 253
3 254 255 256
3 257 258 259
3 260 261 262
3 263 264 265
3 266 267 268
3 269 270 271
3 272 273 274
3 275 276 277
3 278 279 280
3 281 282 283
3 284 285 286
3 287 288 289
3 290 291 292
3 293 294 295
3 296 297 298
CELL_DATA 100
SCALARS Radiative_path_type float 1
LOOKUP_TABLE path_type
0.5
0.5
0.5
0.5
0.5
0.5
0.5
0.5
0.5
0.5
0.5
0.5
0.5
0.5
0.5
0.5
0.5
0.5
0.5
0.5
0.5
0.5
0.5
1.0
0.5
0.5
0.5
0.5
0.5
0.5
0.5
0.5
0.5
0.5
0.5
0.5
0.5
0.5
0.5
0.5
0.5
0.5
0.5
0.5
0.5
0.5
0.5
0.5
0.5
0.5
0.5
0.5
0.5
0.5
0.5
0.5
0.5
0.5
0.5
0.5
0.5
0.5
0.5
0.5
0.5
0.5
0.5
0.5
0.5
0.5
0.5
0.5
0.5
0.5
0.5
0.5
0.5
0.5
0.5
0.5
0.5
0.5
0.5
0.5
0.5
0.5
0.5
0.5
0.5
0.5
0.5
0.5
0.5
0.5
0.5
0.5
0.5
0.5
0.5
0.5
LOOKUP_TABLE path_type 5
1.0 0.0 0.0 1.0
0.0 1.0 0.0 1.0
0.0 0.0 1.0 1.0
0.0 1.0 1.0 1.0
1.0 1.0 0.0 1.0
