# vtk DataFile Version 2.0
Radiative paths
ASCII
DATASET POLYDATA
POINTS 266 float
-838.423702 -941.483532 319.343170
-42.928574 -145.988403 319.343170
-1047.747189 -486.865460 349.916779
-252.252060 308.629669 349.916779
-941.588543 -1043.354260 1204.391113
-146.093414 -247.859131 1204.391113
847.685813 279.424303 1204.391113
-796.662915 -820.407936 16.109079
-1.167786 -24.912807 16.109079
-19.414242 0.000000 16.109079
-242.032501 303.951935 16.109079
-1365.536633 245.956679 16.109079
-897.274365 -1007.808911 1444.569336
-101.779236 -212.313782 1444.569336
794.151866 468.077619 1444.569336
-960.829327 -1056.576519 656.086548
-165.334198 -261.081390 656.086548
-810.343784 -883.707630 1076.932617
-14.848655 -88.212502 1076.932617
-920.532910 -563.607052 18.853851
-125.037781 231.888077 18.853851
-817.470680 -902.145344 1094.477295
-21.975552 -106.650215 1094.477295
-907.342152 -1016.579418 1293.663818
-111.847023 -221.084290 1293.663818
819.586871 409.832492 1293.663818
-799.051534 -752.065685 499.139069
-3.556405 43.429443 499.139069
-1001.995903 561.834262 499.139069
-893.872936 -586.235851 198.463882
-98.377808 209.259277 198.463882
-1020.457821 -1091.159802 946.384888
-224.962692 -295.664673 946.384888
-886.566403 -998.006954 1455.608887
-91.071274 -202.511826 1455.608887
-820.826296 -681.359600 1350.243042
-25.331167 114.135529 1350.243042
-1148.473939 49.518989 1350.243042
-956.317379 -1053.597882 189.721176
-160.822250 -258.102753 189.721176
-978.508526 -523.143170 1291.433228
-183.013397 272.351959 1291.433228
-549.898452 -791.142440 1291.433228
-798.422849 -756.135910 6.521702
-2.927720 39.359219 6.521702
-1001.367218 557.764038 6.521702
-800.359880 -846.258961 1130.106934
-4.864751 -50.763832 1130.106934
-898.942089 -1009.264111 675.821838
-103.446960 -213.768982 675.821838
-1032.980221 -493.703686 159.731003
-237.485092 301.791443 159.731003
-946.695782 -1046.945812 391.140778
-151.200653 -251.450684 391.140778
869.262195 222.132042 391.140778
-815.984514 -898.563610 197.448486
-20.489386 -103.068481 197.448486
-1000.470242 -510.421978 653.567810
-204.975113 285.073151 653.567810
-470.886549 -808.049063 653.567810
-837.401196 -651.085659 368.154205
-41.906067 144.409470 368.154205
-1093.210564 -256.070052 368.154205
-842.498928 -643.309323 1334.744141
-47.003799 152.185806 1334.744141
-967.275677 -1060.825299 571.751831
-171.780548 -265.330170 571.751831
892.847286 98.252784 571.751831
-900.590771 -580.253964 1339.770752
-105.095642 215.241165 1339.770752
-1065.157543 -479.341809 494.151184
-269.662415 316.153320 494.151184
-284.054057 -808.754613 494.151184
-839.978481 -943.884396 1489.251221
-44.483353 -148.389267 1489.251221
-1028.349438 -1095.034435 1091.140015
-232.854309 -299.539307 1091.140015
883.449366 -159.928517 1091.140015
-795.544666 -796.828670 131.575500
-0.049537 -1.333541 131.575500
-1.383078 0.000000 131.575500
-796.878193 795.495115 131.575500
-915.493366 -1023.312176 1002.455994
-119.998238 -227.817047 1002.455994
811.435656 403.099735 1002.455994
-930.995526 -1035.523022 697.225281
-135.500397 -240.027893 697.225281
-892.363690 -587.582211 666.436584
-96.868561 207.912918 666.436584
-981.063732 -521.623913 521.611450
-185.568604 273.871216 521.611450
-265.866821 0.000000 521.611450
-582.389110 -1079.554863 521.611450
-796.196623 -814.334400 466.470428
-0.701494 -18.839272 466.470428
-14.499615 0.000000 466.470428
-234.494995 300.370819 466.470428
-1357.999127 242.375564 466.470428
-980.868405 -521.739758 122.055176
-185.373276 273.755371 122.055176
-265.637543 0.000000 122.055176
-582.159832 -1079.554863 122.055176
-912.276272 -1020.654888 208.113007
-116.781143 -225.159760 208.113007
-1042.220104 -1101.606823 358.394440
-246.724976 -306.111694 358.394440
-1011.842785 -504.301586 835.503052
-216.347656 291.193542 835.503052
-431.563682 -813.028859 835.503052
-1064.887921 -479.455517 148.099426
-269.392792 316.039612 148.099426
-283.784435 -808.868321 148.099426
-872.231243 -983.977307 1410.926147
-76.736115 -188.482178 1410.926147
-796.255585 -775.887865 86.756767
-0.760456 19.607264 86.756767
-908.364398 684.347908 86.756767
-796.337425 -816.168377 456.288361
-0.842297 -20.673248 456.288361
-15.983645 0.000000 456.288361
-236.771042 301.452179 456.288361
-1360.275174 243.456923 456.288361
-844.877339 -639.927960 172.277878
-49.382210 155.567169 172.277878
-1066.945054 -324.214913 172.277878
-921.244183 -1027.937618 673.064758
-125.749054 -232.442490 673.064758
-928.063992 -557.736645 586.286743
-132.568863 237.758484 586.286743
-924.403362 -1030.406872 1034.696533
-128.908234 -234.911743 1034.696533
-894.264157 -585.887493 851.599548
-98.769028 209.607635 851.599548
-801.728610 -853.085686 1431.438965
-6.233481 -57.590557 1431.438965
-822.149042 -912.397907 1200.370361
-26.653913 -116.902779 1200.370361
-799.704629 -748.109947 572.437866
-4.209500 47.385181 572.437866
-1039.402839 487.839273 572.437866
-966.884381 -1060.573864 912.624756
-171.389252 -265.078735 912.624756
-803.220391 -859.460579 1118.364258
-7.725263 -63.965450 1118.364258
-882.924565 -994.538067 579.998657
-87.429436 -199.042938 579.998657
729.419081 574.509629 579.998657
-795.937421 -780.076869 19.361488
-0.442292 15.418260 19.361488
-854.497876 747.684589 19.361488
-970.306149 -1062.713635 217.929703
-174.811020 -267.218506 217.929703
889.816814 96.364448 217.929703
-815.186913 -896.584637 964.235901
-19.691784 -101.089508 964.235901
-968.093121 -529.655651 471.824921
-172.597992 265.839478 471.824921
-809.368523 -880.873059 1009.303101
-13.873394 -85.377930 1009.303101
-798.345634 -756.635811 960.531494
-2.850506 38.859318 960.531494
-1001.290004 557.264137 960.531494
-800.250241 -845.693634 323.854034
-4.755113 -50.198505 323.854034
-1032.750683 -493.812725 671.175110
-237.255554 301.682404 671.175110
-795.544666 -792.036179 740.728271
-0.049537 3.458950 740.728271
-795.544652 798.954065 740.728271
-983.472210 -520.195538 1108.174927
-187.977081 275.299591 1108.174927
-268.694092 0.000000 1108.174927
-585.216381 -1079.554863 1108.174927
-805.536446 -868.271511 489.186005
-10.041317 -72.776382 489.186005
-871.762936 -983.490704 1275.586670
-76.267807 -187.995575 1275.586670
-795.554469 -800.922700 1393.963379
-0.059340 -5.427571 1393.963379
-4.712934 0.000000 1393.963379
-736.979264 854.055583 1393.963379
-798.698956 -754.348343 622.812256
-3.203827 41.146786 622.812256
-1001.643325 559.551605 622.812256
-795.615210 -788.482902 133.378571
-0.120082 7.012227 133.378571
-854.175665 739.278556 133.378571
-917.992466 -565.656185 106.835114
-122.497337 229.838943 106.835114
-731.573696 -716.020943 106.835114
-988.007977 -517.505535 517.500977
-192.512848 277.989594 517.500977
-946.495877 -1046.806103 1200.342896
-151.000748 -251.310974 1200.342896
869.462101 222.271752 1200.342896
-992.234524 -515.050457 1064.074707
-196.739395 280.444672 1064.074707
-902.278980 -578.750698 487.080872
-106.783852 216.744431 487.080872
-955.123669 -538.175427 1297.874878
-159.628540 257.319702 1297.874878
-950.149410 -541.625042 1368.957275
-154.654282 253.870087 1368.957275
-620.862408 -769.982940 1368.957275
-992.387051 -514.964733 1342.207275
-196.891922 280.530396 1342.207275
-828.668644 -665.930691 101.431000
-33.173515 129.564438 101.431000
-1036.930905 -1099.180523 859.007446
-241.435776 -303.685394 859.007446
880.420206 -219.636413 859.007446
-976.505429 -524.395642 433.351044
-181.010300 271.099487 433.351044
-795.855431 -782.215893 780.364380
-0.360302 13.279236 780.364380
-854.415885 745.545565 780.364380
-795.544666 -791.587632 1165.063110
-0.049537 3.907497 1165.063110
-795.544652 799.402612 1165.063110
-933.215084 -553.784100 342.115082
-137.719955 241.711029 342.115082
-831.057278 -661.576702 956.924988
-35.562149 133.918427 956.924988
-915.897869 -1023.646267 1442.170532
-120.402740 -228.151138 1442.170532
-844.453427 -640.530621 1097.332153
-48.958298 154.964508 1097.332153
-806.874971 -717.996487 466.226929
-11.379842 77.498642 466.226929
-1119.701866 270.494259 466.226929
-796.571510 -819.217364 139.262177
-1.076381 -23.722235 139.262177
-18.450846 0.000000 139.262177
-240.554962 303.249939 139.262177
-1364.059094 245.254683 139.262177
-1038.488751 -1099.895153 687.872070
-242.993622 -304.400024 687.872070
878.862360 -220.351044 687.872070
-948.642742 -542.669903 1333.152100
-153.147614 252.825226 1333.152100
-268.270752 0.000000 1333.152100
-734.478878 -1023.853026 1333.152100
-795.825261 -807.987282 634.020203
-0.330132 -12.492153 634.020203
-11.040892 0.000000 634.020203
-743.307221 854.055583 634.020203
-831.780140 -930.629452 313.448700
-36.285011 -135.134323 313.448700
-946.584637 -544.097180 778.867310
-151.089508 251.397949 778.867310
-265.562744 0.000000 778.867310
-731.770871 -1023.853026 778.867310
-849.642666 -633.369717 70.281654
-54.147537 162.125412 70.281654
-901.873287 -579.111965 280.982056
-106.378159 216.383163 280.982056
-804.658016 -665.677096 280.982056
-798.541180 -755.369808 574.855408
-3.046052 40.125320 574.855408
-1001.485550 558.530140 574.855408
-976.178250 -524.600231 693.988708
-180.683121 270.894897 693.988708
-547.568176 -792.599502 693.988708
-816.392046 -691.415493 1348.120605
-20.896917 104.079636 1348.120605
-1145.690521 125.628899 1348.120605
LINES 100 366
2 0 1
2 2 3
3 4 5 6
5 7 8 9 10 11
3 12 13 14
2 15 16
2 17 18
2 19 20
2 21 22
3 23 24 25
3 26 27 28
2 29 30
2 31 32
2 33 34
3 35 36 37
2 38 39
3 40 41 42
3 43 44 45
2 46 47
2 48 49
2 50 51
3 52 53 54
2 55 56
3 57 58 59
3 60 61 62
2 63 64
3 65 66 67
2 68 69
3 70 71 72
2 73 74
3 75 76 77
4 78 79 80 81
3 82 83 84
2 85 86
2 87 88
4 89 90 91 92
5 93 94 95 96 97
4 98 99 100 101
2 102 103
2 104 105
3 106 107 108
3 109 110 111
2 112 113
3 114 115 116
5 117 118 119 120 121
3 122 123 124
2 125 126
2 127 128
2 129 130
2 131 132
2 133 134
2 135 136
3 137 138 139
2 140 141
2 142 143
3 144 145 146
3 147 148 149
3 150 151 152
2 153 154
2 155 156
2 157 158
3 159 160 161
2 162 163
2 164 165
3 166 167 168
4 169 170 171 172
2 173 174
2 175 176
4 177 178 179 180
3 181 182 183
3 184 185 186
3 187 188 189
2 190 191
3 192 193 194
2 195 196
2 197 198
2 199 200
3 201 202 203
2 204 205
2 206 207
3 208 209 210
2 211 212
3 213 214 215
3 216 217 218
2 219 220
2 221 222
2 223 224
2 225 226
3 227 228 229
5 230 231 232 233 234
3 235 236 237
4 238 239 240 241
4 242 243 244 245
2 246 247
4 248 249 250 251
2 252 253
3 254 255 256
3 257 258 259
3 260 261 262
3 263 264 265
CELL_DATA 100
SCALARS Radiative_path_type float 1
LOOKUP_TABLE path_type
1.0
1.0
0.75
0.5
0.75
1.0
1.0
1.0
1.0
0.75
0.75
1.0
1.0
1.0
0.75
1.0
0.75
0.75
1.0
1.0
1.0
0.75
1.0
0.75
0.75
1.0
0.75
1.0
0.75
1.0
0.75
0.5
0.75
1.0
1.0
0.5
0.5
0.5
1.0
1.0
0.75
0.75
1.0
0.75
0.5
0.75
1.0
1.0
1.0
1.0
1.0
1.0
0.75
1.0
1.0
0.75
0.75
0.75
1.0
1.0
1.0
0.75
1.0
1.0
0.75
0.5
1.0
1.0
0.5
0.75
0.75
0.75
1.0
0.75
1.0
1.0
1.0
0.75
1.0
1.0
0.75
1.0
0.75
0.75
1.0
1.0
1.0
1.0
0.75
0.5
0.75
0.5
0.5
1.0
0.5
1.0
0.75
0.75
0.75
0.75
LOOKUP_TABLE path_type 5
1.0 0.0 0.0 1.0
0.0 1.0 0.0 1.0
0.0 0.0 1.0 1.0
0.0 1.0 1.0 1.0
1.0 1.0 0.0 1.0
