# vtk DataFile Version 2.0
Radiative paths
ASCII
DATASET POLYDATA
POINTS 350 float
-1167.928574 -145.988403 319.343170
-42.928574 -145.988403 319.343170
-108.374184 0.000000 319.343170
-245.337753 305.522278 319.343170
-1331.861197 13.817329 319.343170
-1377.252060 308.629669 349.916779
-252.252060 308.629669 349.916779
-1271.093414 -247.859131 1204.391113
-146.093414 -247.859131 1204.391113
-1126.167786 -24.912807 16.109079
-1.167786 -24.912807 16.109079
-162.458160 0.000000 16.109079
-1274.273628 171.730310 16.109079
-1226.779236 -212.313782 1444.569336
-101.779236 -212.313782 1444.569336
-1290.334198 -261.081390 656.086548
-165.334198 -261.081390 656.086548
-53.773712 0.000000 656.086548
-15.411163 89.778625 656.086548
-1014.648686 606.643622 656.086548
-1139.848655 -88.212502 1076.932617
-14.848655 -88.212502 1076.932617
-121.812614 0.000000 1076.932617
-989.738102 715.772621 1076.932617
-1250.037781 231.888077 18.853851
-125.037781 231.888077 18.853851
-1146.975552 -106.650215 1094.477295
-21.975552 -106.650215 1094.477295
-117.021790 0.000000 1094.477295
-865.512868 839.872666 1094.477295
-1236.847023 -221.084290 1293.663818
-111.847023 -221.084290 1293.663818
-1128.556405 43.429443 499.139069
-3.556405 43.429443 499.139069
-140.787552 0.000000 499.139069
-1213.358479 -339.435764 499.139069
-1223.377808 209.259277 198.463882
-98.377808 209.259277 198.463882
-1349.962692 -295.664673 946.384888
-224.962692 -295.664673 946.384888
-18.011841 0.000000 946.384888
-1.109100 24.148438 946.384888
-779.353588 836.527991 946.384888
-1216.071274 -202.511826 1455.608887
-91.071274 -202.511826 1455.608887
-74.508835 0.000000 1455.608887
-60.576893 170.348251 1455.608887
-1178.782723 293.801565 1455.608887
-1150.331167 114.135529 1350.243042
-25.331167 114.135529 1350.243042
-127.048286 0.000000 1350.243042
-875.539365 -839.872666 1350.243042
-1285.822250 -258.102753 189.721176
-160.822250 -258.102753 189.721176
-50.534546 0.000000 189.721176
-13.949554 85.618652 189.721176
-970.688816 677.458934 189.721176
-1308.013397 272.351959 1291.433228
-183.013397 272.351959 1291.433228
-50.375229 0.000000 1291.433228
-11.873276 -79.057800 1291.433228
-996.661403 -622.948735 1291.433228
-1127.927720 39.359219 6.521702
-2.927720 39.359219 6.521702
-127.297501 0.000000 6.521702
-1199.868428 -339.435764 6.521702
-1129.864751 -50.763832 1130.106934
-4.864751 -50.763832 1130.106934
-130.818298 0.000000 1130.106934
-1174.258558 420.544121 1130.106934
-1228.446960 -213.768982 675.821838
-103.446960 -213.768982 675.821838
-74.217087 0.000000 675.821838
-52.367954 159.790802 675.821838
-1167.537859 308.185843 675.821838
-1362.485092 301.791443 159.731003
-237.485092 301.791443 159.731003
-1276.200653 -251.450684 391.140778
-151.200653 -251.450684 391.140778
-1145.489386 -103.068481 197.448486
-20.489386 -103.068481 197.448486
-127.584259 0.000000 197.448486
-938.171091 780.111574 197.448486
-1329.975113 285.073151 653.567810
-204.975113 285.073151 653.567810
-31.458008 0.000000 653.567810
-3.853378 -45.351959 653.567810
-851.468106 -785.064235 653.567810
-1166.906067 144.409470 368.154205
-41.906067 144.409470 368.154205
-106.643852 0.000000 368.154205
-243.132965 -304.463928 368.154205
-1321.418138 16.356936 368.154205
-1172.003799 152.185806 1334.744141
-47.003799 152.185806 1334.744141
-1296.780548 -265.330170 571.751831
-171.780548 -265.330170 571.751831
-1230.095642 215.241165 1339.770752
-105.095642 215.241165 1339.770752
-1394.662415 316.153320 494.151184
-269.662415 316.153320 494.151184
-3.505127 43.097595 494.151184
-25.186651 0.000000 494.151184
-151.949753 -251.974182 494.151184
-1269.491133 -381.304090 494.151184
-1169.483353 -148.389267 1489.251221
-44.483353 -148.389267 1489.251221
-1357.854309 -299.539307 1091.140015
-232.854309 -299.539307 1091.140015
-1125.049537 -1.333541 131.575500
-0.049537 -1.333541 131.575500
-1125.049537 -1.333541 131.575500
-1244.998238 -227.817047 1002.455994
-119.998238 -227.817047 1002.455994
-1260.500397 -240.027893 697.225281
-135.500397 -240.027893 697.225281
-61.886070 0.000000 697.225281
-26.270546 116.128479 697.225281
-1081.622228 505.817809 697.225281
-1221.868561 207.912918 666.436584
-96.868561 207.912918 666.436584
-1310.568604 273.871216 521.611450
-185.568604 273.871216 521.611450
-35.883011 0.000000 521.611450
-5.721954 -55.183960 521.611450
-875.173485 -769.102035 521.611450
-1125.701494 -18.839272 466.470428
-0.701494 -18.839272 466.470428
-122.670609 0.000000 466.470428
-1234.486076 171.730310 466.470428
-1310.373276 273.755371 122.055176
-185.373276 273.755371 122.055176
-35.750992 0.000000 122.055176
-5.687393 -55.005646 122.055176
-875.138923 -768.923721 122.055176
-1241.781143 -225.159760 208.113007
-116.781143 -225.159760 208.113007
-73.471817 0.000000 208.113007
-44.827126 148.920135 208.113007
-1139.840364 406.933857 208.113007
-1371.724976 -306.111694 358.394440
-246.724976 -306.111694 358.394440
-0.819458 -20.375824 358.394440
-13.519549 0.000000 358.394440
-183.431259 272.603638 358.394440
-1306.592873 336.891729 358.394440
-1341.347656 291.193542 835.503052
-216.347656 291.193542 835.503052
-20.148346 0.000000 835.503052
-1.458832 -27.738464 835.503052
-826.130011 -792.945941 835.503052
-1394.392792 316.039612 148.099426
-269.392792 316.039612 148.099426
-3.535065 43.291168 148.099426
-25.313972 0.000000 148.099426
-152.146088 -252.111389 148.099426
-1269.687066 -381.445027 148.099426
-1201.736115 -188.482178 1410.926147
-76.736115 -188.482178 1410.926147
-1125.760456 19.607264 86.756767
-0.760456 19.607264 86.756767
-127.701706 0.000000 86.756767
-1239.517173 -171.730310 86.756767
-1125.842297 -20.673248 456.288361
-0.842297 -20.673248 456.288361
-134.684937 0.000000 456.288361
-1246.500404 171.730310 456.288361
-1174.382210 155.567169 172.277878
-49.382210 155.567169 172.277878
-105.255127 0.000000 172.277878
-208.289703 -286.879486 172.277878
-1307.393042 -46.886102 172.277878
-1250.749054 -232.442490 673.064758
-125.749054 -232.442490 673.064758
-67.894257 0.000000 673.064758
-34.869476 132.683273 673.064758
-1098.897568 498.017576 673.064758
-1257.568863 237.758484 586.286743
-132.568863 237.758484 586.286743
-1253.908234 -234.911743 1034.696533
-128.908234 -234.911743 1034.696533
-70.438843 0.000000 1034.696533
-36.650833 135.749695 1034.696533
-1125.523758 418.558494 1034.696533
-1223.769028 209.607635 851.599548
-98.769028 209.607635 851.599548
-1131.233481 -57.590557 1431.438965
-6.233481 -57.590557 1431.438965
-122.547134 0.000000 1431.438965
-1130.733378 499.184813 1431.438965
-1151.653913 -116.902779 1200.370361
-26.653913 -116.902779 1200.370361
-1129.209500 47.385181 572.437866
-4.209500 47.385181 572.437866
-121.780060 0.000000 572.437866
-1165.220320 -420.544121 572.437866
-1296.389252 -265.078735 912.624756
-171.389252 -265.078735 912.624756
-58.120697 0.000000 912.624756
-17.396317 95.305939 912.624756
-1016.632766 612.172947 912.624756
-1132.725263 -63.965450 1118.364258
-7.725263 -63.965450 1118.364258
-1212.429436 -199.042938 579.998657
-87.429436 -199.042938 579.998657
-1125.442292 15.418260 19.361488
-0.442292 15.418260 19.361488
-201.267273 0.000000 19.361488
-1322.966278 -86.118003 19.361488
-1299.811020 -267.218506 217.929703
-174.811020 -267.218506 217.929703
-43.645386 0.000000 217.929703
-9.280930 70.009338 217.929703
-951.457473 684.768091 217.929703
-1144.691784 -101.089508 964.235901
-19.691784 -101.089508 964.235901
-1297.597992 265.839478 471.824921
-172.597992 265.839478 471.824921
-1138.873394 -85.377930 1009.303101
-13.873394 -85.377930 1009.303101
-135.255020 0.000000 1009.303101
-1055.425514 647.233531 1009.303101
-1127.850506 38.859318 960.531494
-2.850506 38.859318 960.531494
-125.640671 0.000000 960.531494
-1198.211598 -339.435764 960.531494
-1129.755113 -50.198505 323.854034
-4.755113 -50.198505 323.854034
-129.306000 0.000000 323.854034
-1172.746260 420.544121 323.854034
-1362.255554 301.682404 671.175110
-237.255554 301.682404 671.175110
-1125.049537 3.458950 740.728271
-0.049537 3.458950 740.728271
-1125.049537 3.458950 740.728271
-1312.977081 275.299591 1108.174927
-187.977081 275.299591 1108.174927
-37.510803 0.000000 1108.174927
-6.173782 -57.335541 1108.174927
-927.725882 -702.600330 1108.174927
-1135.041317 -72.776382 489.186005
-10.041317 -72.776382 489.186005
-1201.267807 -187.995575 1275.586670
-76.267807 -187.995575 1275.586670
-1125.059340 -5.427571 1393.963379
-0.059340 -5.427571 1393.963379
-70.754219 0.000000 1393.963379
-1192.453224 86.118003 1393.963379
-1128.203827 41.146786 622.812256
-3.203827 41.146786 622.812256
-133.222076 0.000000 622.812256
-1205.793004 -339.435764 622.812256
-1125.120082 7.012227 133.378571
-0.120082 7.012227 133.378571
-91.455315 0.000000 133.378571
-1213.154320 -86.118003 133.378571
-1247.497337 229.838943 106.835114
-122.497337 229.838943 106.835114
-72.716537 0.000000 106.835114
-41.556000 -143.868851 106.835114
-1142.274699 -376.341019 106.835114
-1317.512848 277.989594 517.500977
-192.512848 277.989594 517.500977
-1276.000748 -251.310974 1200.342896
-151.000748 -251.310974 1200.342896
-1321.739395 280.444672 1064.074707
-196.739395 280.444672 1064.074707
-1231.783852 216.744431 487.080872
-106.783852 216.744431 487.080872
-1284.628540 257.319702 1297.874878
-159.628540 257.319702 1297.874878
-1279.654282 253.870087 1368.957275
-154.654282 253.870087 1368.957275
-59.645195 0.000000 1368.957275
-20.791779 -103.818695 1368.957275
-1035.527574 -589.551358 1368.957275
-1321.891922 280.530396 1342.207275
-196.891922 280.530396 1342.207275
-1158.173515 129.564438 101.431000
-33.173515 129.564438 101.431000
-1366.435776 -303.685394 859.007446
-241.435776 -303.685394 859.007446
-1306.010300 271.099487 433.351044
-181.010300 271.099487 433.351044
-1125.360302 13.279236 780.364380
-0.360302 13.279236 780.364380
-173.324203 0.000000 780.364380
-1295.023209 -86.118003 780.364380
-1125.049537 3.907497 1165.063110
-0.049537 3.907497 1165.063110
-1125.049537 3.907497 1165.063110
-1262.719955 241.711029 342.115082
-137.719955 241.711029 342.115082
-1160.562149 133.918427 956.924988
-35.562149 133.918427 956.924988
-1245.402740 -228.151138 1442.170532
-120.402740 -228.151138 1442.170532
-76.518021 0.000000 1442.170532
-47.193352 152.455276 1442.170532
-1158.745024 325.885185 1442.170532
-1173.958298 154.964508 1097.332153
-48.958298 154.964508 1097.332153
-1136.379842 77.498642 466.226929
-11.379842 77.498642 466.226929
-121.559502 0.000000 466.226929
-1041.729995 -647.233531 466.226929
-1126.076381 -23.722235 139.262177
-1.076381 -23.722235 139.262177
-154.658752 0.000000 139.262177
-1266.474220 171.730310 139.262177
-1367.993622 -304.400024 687.872070
-242.993622 -304.400024 687.872070
-1278.147614 252.825226 1333.152100
-153.147614 252.825226 1333.152100
-58.529556 0.000000 1333.152100
-20.213287 -102.383392 1333.152100
-1034.949083 -588.116056 1333.152100
-1125.330132 -12.492153 634.020203
-0.330132 -12.492153 634.020203
-163.042175 0.000000 634.020203
-1284.741181 86.118003 634.020203
-1161.285011 -135.134323 313.448700
-36.285011 -135.134323 313.448700
-109.768654 0.000000 313.448700
-647.203042 988.326497 313.448700
-1276.089508 251.397949 778.867310
-151.089508 251.397949 778.867310
-57.005600 0.000000 778.867310
-19.423065 -100.422821 778.867310
-1034.158861 -586.155484 778.867310
-1179.147537 162.125412 70.281654
-54.147537 162.125412 70.281654
-1231.378159 216.383163 280.982056
-106.378159 216.383163 280.982056
-81.214600 0.000000 280.982056
-61.302231 -171.227798 280.982056
-1183.072717 -256.409384 280.982056
-1128.046052 40.125320 574.855408
-3.046052 40.125320 574.855408
-129.836624 0.000000 574.855408
-1202.407552 -339.435764 574.855408
-1305.683121 270.894897 693.988708
-180.683121 270.894897 693.988708
-48.754547 0.000000 693.988708
-11.234940 -77.040741 693.988708
-996.023067 -620.931675 693.988708
-1145.896917 104.079636 1348.120605
-20.896917 104.079636 1348.120605
-129.042450 0.000000 1348.120605
-939.629282 -780.111574 1348.120605
LINES 100 450
5 0 1 2 3 4
2 5 6
2 7 8
4 9 10 11 12
2 13 14
5 15 16 17 18 19
4 20 21 22 23
2 24 25
4 26 27 28 29
2 30 31
4 32 33 34 35
2 36 37
5 38 39 40 41 42
5 43 44 45 46 47
4 48 49 50 51
5 52 53 54 55 56
5 57 58 59 60 61
4 62 63 64 65
4 66 67 68 69
5 70 71 72 73 74
2 75 76
2 77 78
4 79 80 81 82
5 83 84 85 86 87
5 88 89 90 91 92
2 93 94
2 95 96
2 97 98
6 99 100 101 102 103 104
2 105 106
2 107 108
3 109 110 111
2 112 113
5 114 115 116 117 118
2 119 120
5 121 122 123 124 125
4 126 127 128 129
5 130 131 132 133 134
5 135 136 137 138 139
6 140 141 142 143 144 145
5 146 147 148 149 150
6 151 152 153 154 155 156
2 157 158
4 159 160 161 162
4 163 164 165 166
5 167 168 169 170 171
5 172 173 174 175 176
2 177 178
5 179 180 181 182 183
2 184 185
4 186 187 188 189
2 190 191
4 192 193 194 195
5 196 197 198 199 200
2 201 202
2 203 204
4 205 206 207 208
5 209 210 211 212 213
2 214 215
2 216 217
4 218 219 220 221
4 222 223 224 225
4 226 227 228 229
2 230 231
3 232 233 234
5 235 236 237 238 239
2 240 241
2 242 243
4 244 245 246 247
4 248 249 250 251
4 252 253 254 255
5 256 257 258 259 260
2 261 262
2 263 264
2 265 266
2 267 268
2 269 270
5 271 272 273 274 275
2 276 277
2 278 279
2 280 281
2 282 283
4 284 285 286 287
3 288 289 290
2 291 292
2 293 294
5 295 296 297 298 299
2 300 301
4 302 303 304 305
4 306 307 308 309
2 310 311
5 312 313 314 315 316
4 317 318 319 320
4 321 322 323 324
5 325 326 327 328 329
2 330 331
5 332 333 334 335 336
4 337 338 339 340
5 341 342 343 344 345
4 346 347 348 349
CELL_DATA 100
SCALARS Radiative_path_type float 1
LOOKUP_TABLE path_type
0.5
1.0
1.0
0.5
1.0
0.5
0.5
1.0
0.5
1.0
0.5
1.0
0.5
0.5
0.5
0.5
0.5
0.5
0.5
0.5
1.0
1.0
0.5
0.5
0.5
1.0
1.0
1.0
0.5
1.0
1.0
0.75
1.0
0.5
1.0
0.5
0.5
0.5
0.5
0.5
0.5
0.5
1.0
0.5
0.5
0.5
0.5
1.0
0.5
1.0
0.5
1.0
0.5
0.5
1.0
1.0
0.5
0.5
1.0
1.0
0.5
0.5
0.5
1.0
0.75
0.5
1.0
1.0
0.5
0.5
0.5
0.5
1.0
1.0
1.0
1.0
1.0
0.5
1.0
1.0
1.0
1.0
0.5
0.75
1.0
1.0
0.5
1.0
0.5
0.5
1.0
0.5
0.5
0.5
0.5
1.0
0.5
0.5
0.5
0.5
LOOKUP_TABLE path_type 5
1.0 0.0 0.0 1.0
0.0 1.0 0.0 1.0
0.0 0.0 1.0 1.0
0.0 1.0 1.0 1.0
1.0 1.0 0.0 1.0
