# vtk DataFile Version 2.0
Radiative paths
ASCII
DATASET POLYDATA
POINTS 2327 float
-941.483532 838.423702 319.343170
-145.988403 42.928574 319.343170
-486.865460 1047.747189 349.916779
308.629669 252.252060 349.916779
-1043.354260 941.588543 1204.391113
-247.859131 146.093414 1204.391113
279.424303 -847.685813 1204.391113
-820.407936 796.662915 16.109079
-24.912807 1.167786 16.109079
0.000000 19.414242 16.109079
-588.639675 891.231182 900.033630
206.855453 95.736053 900.033630
-557.282116 928.656353 674.266663
238.213013 133.161224 674.266663
-1083.925915 1006.587658 692.974609
-288.430786 211.092529 692.974609
-824.273354 797.074033 88.458809
-28.778225 1.578904 88.458809
0.000000 19.442514 88.458809
-579.552853 901.378155 955.571960
215.942276 105.883026 955.571960
-666.117984 804.162884 955.571960
-583.282345 897.189831 1403.140381
212.212784 101.694702 1403.140381
0.000000 269.692200 1403.140381
-1091.159802 1020.457821 946.384888
-295.664673 224.962692 946.384888
-998.006954 886.566403 1455.608887
-202.511826 91.071274 1455.608887
-681.359600 820.826296 1350.243042
114.135529 25.331167 1350.243042
-1053.597882 956.317379 189.721176
-258.102753 160.822250 189.721176
-523.143170 978.508526 1291.433228
272.351959 183.013397 1291.433228
-791.142440 549.898452 1291.433228
-756.135910 798.422849 6.521702
39.359219 2.927720 6.521702
-846.258961 800.359880 1130.106934
-50.763832 4.864751 1130.106934
-1009.264111 898.942089 675.821838
-213.768982 103.446960 675.821838
-493.703686 1032.980221 159.731003
301.791443 237.485092 159.731003
-1046.945812 946.695782 391.140778
-251.450684 151.200653 391.140778
222.132042 -869.262195 391.140778
-898.563610 815.984514 197.448486
-103.068481 20.489386 197.448486
-510.421978 1000.470242 653.567810
285.073151 204.975113 653.567810
-808.049063 470.886549 653.567810
-651.085659 837.401196 368.154205
144.409470 41.906067 368.154205
-643.309323 842.498928 1334.744141
152.185806 47.003799 1334.744141
-1060.825299 967.275677 571.751831
-265.330170 171.780548 571.751831
98.252784 -892.847286 571.751831
-580.253964 900.590771 1339.770752
215.241165 105.095642 1339.770752
-479.341809 1065.157543 494.151184
316.153320 269.662415 494.151184
-808.754613 284.054057 494.151184
-943.884396 839.978481 1489.251221
-148.389267 44.483353 1489.251221
-1095.034435 1028.349438 1091.140015
-299.539307 232.854309 1091.140015
-159.928517 -883.449366 1091.140015
-796.828670 795.544666 131.575500
-1.333541 0.049537 131.575500
0.000000 1.383078 131.575500
-740.889900 801.104875 1132.824585
54.605228 5.609746 1132.824585
-1017.437298 908.380779 1460.823730
-221.942169 112.885651 1460.823730
408.974613 -818.548243 1460.823730
-642.726513 842.908871 157.527649
152.768616 47.413742 157.527649
-1098.414654 1035.261379 1212.280151
-302.919525 239.766251 1212.280151
-553.191479 934.012341 472.105835
242.303650 138.517212 472.105835
0.000000 263.221375 472.105835
-691.356259 816.415920 685.343750
104.138870 20.920792 685.343750
-645.093746 841.281513 517.169617
150.401382 45.786385 517.169617
-821.072457 796.713934 705.140076
-25.577328 1.218805 705.140076
0.000000 19.951963 705.140076
-983.977307 872.231243 1410.926147
-188.482178 76.736115 1410.926147
-775.887865 796.255585 86.756767
19.607264 0.760456 86.756767
-816.168377 796.337425 456.288361
-20.673248 0.842297 456.288361
0.000000 15.983645 456.288361
-703.039486 811.867735 321.595886
92.455643 16.372606 321.595886
-1044.736981 943.535092 558.569458
-249.241852 148.039963 558.569458
224.340874 -872.422885 558.569458
-1049.243969 949.984295 214.641541
-253.748840 154.489166 214.641541
-624.284451 856.783241 824.933594
171.210678 61.288113 824.933594
-597.938046 881.367932 46.852158
197.557083 85.872803 46.852158
-512.117413 997.453442 1105.632812
283.377716 201.958313 1105.632812
-990.621472 878.899899 661.398560
-195.126343 83.404770 661.398560
578.426224 -733.443747 661.398560
-497.457531 1025.247479 611.410278
298.037598 229.752350 611.410278
-814.857459 394.341563 611.410278
-881.906018 809.696722 1210.660156
-86.410889 14.201593 1210.660156
-848.386944 800.772578 1319.570801
-52.891815 5.277449 1319.570801
-1057.655895 962.464367 1352.859863
-262.160767 166.969238 1352.859863
-994.555828 882.942822 1153.529297
-199.060699 87.447693 1153.529297
574.491867 -729.400824 1153.529297
-938.022763 836.182530 728.551514
-142.527634 40.687401 728.551514
-549.179058 939.511364 634.630554
246.316071 144.016235 634.630554
-715.952877 807.521712 1382.056152
79.542252 12.026583 1382.056152
-893.490566 813.939896 230.984329
-97.995438 18.444767 230.984329
-757.347294 798.235739 769.072754
38.147835 2.740611 769.072754
-943.086621 839.461846 490.456482
-147.591492 43.966717 490.456482
-1040.027539 937.088604 59.253304
-244.532410 141.593475 59.253304
282.751024 -852.185752 59.253304
-744.211071 800.460772 994.219055
51.284058 4.965643 994.219055
-602.942883 876.247456 290.672791
192.552246 80.752327 290.672791
0.000000 264.702240 290.672791
-1063.822949 972.086392 221.472275
-268.327820 176.591263 221.472275
95.255134 -888.036571 221.472275
-1014.934475 905.440556 330.574768
-219.439346 109.945427 330.574768
460.952055 -785.985675 330.574768
-601.098858 878.134083 1270.855469
194.396271 82.638954 1270.855469
-481.085003 1061.024059 834.514343
314.410126 265.528931 834.514343
-948.825634 843.304096 969.297424
-153.330505 47.808968 969.297424
-664.445568 829.476235 887.090576
131.049561 33.981106 887.090576
-971.723400 860.953427 658.582947
-176.228271 65.458298 658.582947
-523.000439 978.742642 390.075378
272.494690 183.247513 390.075378
-1075.986401 992.305859 859.538330
-280.491272 196.810730 859.538330
-1015.250759 905.803021 412.670715
-219.755630 110.307892 412.670715
460.635771 -785.623210 412.670715
-1108.664074 1058.022534 1189.410278
-313.168945 262.527405 1189.410278
-273.468438 -861.771868 1189.410278
-482.139385 1058.523907 406.699341
313.355743 263.028778 406.699341
-539.346997 953.434277 846.114563
256.148132 157.939148 846.114563
-947.377133 842.285248 342.443512
-151.882004 46.790119 342.443512
-771.673790 796.579118 1312.548462
23.821339 1.083990 1312.548462
-991.924816 880.239201 1063.344971
-196.429688 84.744072 1063.344971
577.122879 -732.104445 1063.344971
-498.013684 1024.141979 305.488495
297.481445 228.646851 305.488495
-487.224255 1046.946316 485.957977
308.270874 251.451187 485.957977
0.000000 269.028534 485.957977
-1023.646267 915.897869 1442.170532
-228.151138 120.402740 1442.170532
-640.530621 844.453427 1097.332153
154.964508 48.958298 1097.332153
-717.996487 806.874971 466.226929
77.498642 11.379842 466.226929
-819.217364 796.571510 139.262177
-23.722235 1.076381 139.262177
0.000000 18.450846 139.262177
-951.820385 845.410572 635.841248
-156.325256 49.915443 635.841248
-1012.026898 902.108349 851.076904
-216.531769 106.613220 851.076904
463.859632 -789.317882 851.076904
-993.421734 881.777439 750.467102
-197.926605 86.282310 750.467102
-845.203507 800.155187 659.478394
-49.708378 4.660058 659.478394
-889.531506 812.435471 1451.219116
-94.036377 16.940342 1451.219116
-807.226221 795.796089 507.484039
-11.731092 0.300960 507.484039
0.000000 10.359186 507.484039
-775.817917 796.260955 565.556885
19.677212 0.765826 565.556885
-1010.461773 900.314663 717.588257
-214.966644 104.819534 717.588257
-756.392712 798.383183 203.582886
39.102417 2.888054 203.582886
-1044.782849 943.600750 632.263245
-249.287720 148.105621 632.263245
224.295006 -872.357227 632.263245
-771.839329 796.566409 1210.185547
23.655800 1.071280 1210.185547
-947.386959 842.292168 888.796997
-151.891830 46.797039 888.796997
-718.563046 806.695671 798.901062
76.932083 11.200542 798.901062
-556.638973 929.494518 361.178894
238.856155 133.999390 361.178894
-729.977085 803.583714 547.988525
65.518044 8.088585 547.988525
-812.098973 796.024999 439.361328
-16.603844 0.529870 439.361328
0.000000 12.690735 439.361328
-625.213207 856.017292 420.051910
170.281921 60.522163 420.051910
-1104.385143 1048.276638 1039.722778
-308.890015 252.781509 1039.722778
-224.841034 -869.074472 1039.722778
-779.156906 796.004606 1237.311523
16.338223 0.509477 1237.311523
-538.314739 954.922802 103.607071
257.180389 159.427673 103.607071
-766.672637 625.635800 103.607071
-987.517468 875.710255 379.741882
-192.022339 80.215126 379.741882
-1080.586407 1000.553845 1393.913574
-285.091278 205.058716 1393.913574
-33.427485 -891.431280 1393.913574
-544.184582 946.458599 100.499153
251.310547 150.963470 100.499153
-1038.621762 935.187069 1098.995117
-243.126633 139.691940 1098.995117
284.156801 -854.087287 1098.995117
-830.181141 797.756058 1209.664429
-34.686012 2.260929 1209.664429
0.000000 23.791702 1209.664429
-974.240521 863.196675 1378.045898
-178.745392 67.701546 1378.045898
-604.713467 874.444287 1276.980957
190.781662 78.949158 1276.980957
-911.968525 821.936440 79.680359
-116.473396 26.441311 79.680359
-993.522854 881.881329 289.834961
-198.027725 86.386200 289.834961
575.524842 -730.462317 289.834961
-1077.372875 994.747723 1279.892212
-281.877747 199.252594 1279.892212
-30.213954 -897.237402 1279.892212
-1080.903912 1001.127545 640.194763
-285.408783 205.632416 640.194763
-901.878048 817.350855 954.279541
-106.382919 21.855726 954.279541
-769.544401 796.747612 1154.821045
25.950727 1.252483 1154.821045
-803.275208 795.644643 878.577209
-7.780079 0.149514 878.577209
0.000000 6.820146 878.577209
-584.359478 895.980175 1081.285645
211.135651 100.485046 1081.285645
0.000000 267.629822 1081.285645
-1070.648022 983.220577 1162.431763
-275.152893 187.725449 1162.431763
-995.583203 883.998539 1225.287476
-200.088074 88.503410 1225.287476
573.464493 -728.345106 1225.287476
-484.040600 1054.052899 223.734558
311.454529 258.557770 223.734558
-811.721100 322.600296 223.734558
-495.823162 1028.519161 1456.702026
299.671967 233.024033 1456.702026
-611.388638 868.020069 592.212280
184.106491 72.524940 592.212280
-830.107228 797.747525 979.613342
-34.612099 2.252397 979.613342
0.000000 23.737289 979.613342
[...]
CELL_DATA 1000
SCALARS Radiative_path_type float 1
LOOKUP_TABLE path_type
1.0
1.0
0.75
0.5
1.0
1.0
1.0
0.5
0.75
0.5
1.0
1.0
1.0
1.0
0.75
1.0
1.0
1.0
1.0
0.75
1.0
0.75
1.0
1.0
0.75
1.0
0.75
1.0
0.75
0.5
1.0
0.75
1.0
1.0
0.5
1.0
1.0
0.5
1.0
1.0
0.5
1.0
0.75
1.0
1.0
1.0
1.0
0.75
0.75
1.0
1.0
1.0
0.75
1.0
1.0
1.0
1.0
1.0
1.0
0.75
1.0
0.5
0.75
0.75
1.0
1.0
1.0
1.0
1.0
1.0
1.0
0.75
0.75
1.0
1.0
1.0
1.0
0.75
1.0
0.5
1.0
1.0
1.0
0.5
1.0
0.75
1.0
1.0
1.0
0.5
1.0
1.0
1.0
0.75
1.0
1.0
1.0
1.0
1.0
0.5
1.0
0.75
1.0
0.75
1.0
0.75
1.0
0.75
0.5
1.0
1.0
1.0
0.75
0.75
1.0
1.0
1.0
0.5
0.5
1.0
0.75
0.75
1.0
1.0
0.5
1.0
1.0
0.5
1.0
0.75
0.75
1.0
1.0
0.75
0.75
0.5
1.0
1.0
0.75
1.0
1.0
1.0
1.0
1.0
1.0
0.75
0.75
1.0
1.0
1.0
1.0
0.75
0.5
1.0
1.0
1.0
1.0
1.0
1.0
1.0
1.0
1.0
0.75
1.0
0.75
0.75
1.0
0.75
0.75
1.0
1.0
0.75
1.0
1.0
0.75
1.0
0.75
1.0
1.0
1.0
0.5
1.0
1.0
1.0
1.0
1.0
1.0
1.0
1.0
1.0
1.0
1.0
1.0
0.5
1.0
1.0
0.75
1.0
1.0
1.0
1.0
1.0
1.0
0.5
0.75
0.5
1.0
1.0
1.0
1.0
0.75
0.5
0.75
0.75
1.0
0.5
1.0
0.75
1.0
0.5
0.5
1.0
0.5
1.0
0.75
1.0
0.5
0.75
0.75
0.75
0.75
1.0
1.0
0.75
0.5
0.75
0.75
1.0
1.0
1.0
0.75
0.75
1.0
1.0
0.5
1.0
1.0
1.0
1.0
0.5
0.5
1.0
0.75
1.0
1.0
1.0
0.75
1.0
0.75
1.0
1.0
1.0
1.0
1.0
1.0
0.75
1.0
0.5
1.0
1.0
1.0
1.0
1.0
0.5
0.5
1.0
1.0
1.0
1.0
1.0
1.0
1.0
0.75
1.0
0.75
0.5
0.5
1.0
0.5
1.0
0.5
1.0
0.75
1.0
1.0
1.0
0.75
0.75
1.0
1.0
0.75
0.5
1.0
0.5
1.0
1.0
1.0
1.0
1.0
1.0
0.5
1.0
1.0
0.5
1.0
0.75
1.0
1.0
1.0
0.75
1.0
1.0
0.5
1.0
1.0
0.75
1.0
1.0
0.75
1.0
1.0
0.5
1.0
1.0
0.75
0.5
0.5
1.0
0.75
1.0
1.0
0.75
0.75
1.0
1.0
0.75
1.0
1.0
1.0
1.0
1.0
1.0
1.0
1.0
1.0
1.0
1.0
1.0
1.0
0.75
0.75
0.75
1.0
1.0
1.0
0.75
1.0
1.0
1.0
1.0
0.75
1.0
0.75
1.0
1.0
0.5
0.75
0.75
1.0
0.5
1.0
1.0
1.0
1.0
0.75
1.0
1.0
1.0
1.0
1.0
1.0
1.0
1.0
1.0
1.0
1.0
0.75
0.75
1.0
1.0
0.5
0.75
0.5
1.0
1.0
1.0
1.0
1.0
0.75
0.5
1.0
1.0
1.0
1.0
0.75
1.0
1.0
0.75
1.0
1.0
0.75
1.0
1.0
0.75
1.0
0.75
1.0
1.0
1.0
0.5
1.0
1.0
1.0
1.0
1.0
1.0
0.75
0.75
1.0
1.0
1.0
1.0
1.0
1.0
1.0
1.0
0.75
1.0
1.0
1.0
1.0
0.75
0.75
0.75
1.0
0.75
1.0
1.0
0.75
0.75
1.0
1.0
0.75
0.5
1.0
1.0
1.0
0.75
1.0
1.0
1.0
1.0
1.0
1.0
1.0
0.75
1.0
1.0
1.0
0.5
1.0
1.0
1.0
1.0
1.0
1.0
0.75
0.75
1.0
0.5
1.0
1.0
1.0
1.0
1.0
1.0
1.0
0.75
1.0
0.75
0.75
1.0
1.0
1.0
1.0
0.75
1.0
0.75
1.0
1.0
1.0
1.0
0.5
1.0
0.75
1.0
1.0
0.75
0.75
1.0
0.75
1.0
0.75
0.75
1.0
1.0
1.0
1.0
0.5
1.0
1.0
0.75
0.75
0.75
1.0
0.75
1.0
1.0
1.0
1.0
0.5
1.0
1.0
1.0
1.0
1.0
1.0
1.0
1.0
1.0
1.0
1.0
1.0
0.5
0.5
0.75
1.0
1.0
0.5
1.0
1.0
1.0
1.0
1.0
1.0
1.0
1.0
1.0
1.0
0.75
0.5
1.0
1.0
0.75
1.0
1.0
1.0
1.0
0.5
1.0
1.0
1.0
1.0
0.75
1.0
1.0
1.0
1.0
0.75
1.0
1.0
1.0
1.0
0.5
0.5
1.0
0.75
1.0
0.5
1.0
1.0
1.0
1.0
1.0
1.0
1.0
1.0
1.0
0.75
1.0
1.0
1.0
1.0
1.0
1.0
1.0
0.75
1.0
1.0
1.0
1.0
1.0
0.75
0.5
0.5
0.5
1.0
1.0
1.0
1.0
1.0
1.0
0.75
0.5
1.0
0.75
0.75
1.0
1.0
0.5
0.75
1.0
1.0
1.0
0.75
1.0
0.5
1.0
0.5
0.75
1.0
1.0
0.5
0.5
1.0
1.0
0.75
1.0
1.0
1.0
1.0
0.75
0.75
0.75
1.0
1.0
1.0
1.0
1.0
0.75
1.0
1.0
0.5
1.0
1.0
1.0
1.0
0.5
0.5
1.0
1.0
0.5
0.75
1.0
1.0
1.0
1.0
0.5
1.0
0.75
0.75
1.0
1.0
1.0
0.5
1.0
1.0
1.0
1.0
1.0
0.75
1.0
1.0
0.75
0.75
0.75
0.5
1.0
1.0
1.0
1.0
1.0
1.0
1.0
1.0
0.5
1.0
1.0
1.0
1.0
1.0
0.75
1.0
0.75
0.75
0.75
0.75
1.0
1.0
1.0
1.0
0.75
1.0
0.75
1.0
1.0
0.75
1.0
0.75
1.0
0.5
1.0
1.0
1.0
1.0
1.0
1.0
1.0
0.75
0.75
1.0
0.5
1.0
0.5
1.0
1.0
1.0
1.0
0.75
0.5
0.75
1.0
1.0
1.0
1.0
1.0
1.0
1.0
0.75
1.0
1.0
1.0
1.0
1.0
1.0
1.0
1.0
1.0
1.0
0.75
0.75
0.5
1.0
1.0
1.0
1.0
1.0
1.0
1.0
0.75
1.0
1.0
1.0
0.75
1.0
0.75
1.0
0.75
0.75
1.0
1.0
1.0
1.0
0.75
0.5
1.0
0.75
1.0
0.75
1.0
1.0
1.0
1.0
0.75
1.0
1.0
0.75
1.0
1.0
0.75
1.0
0.5
0.75
1.0
0.75
0.5
0.75
1.0
1.0
0.75
1.0
1.0
1.0
1.0
0.75
0.5
1.0
1.0
1.0
0.75
0.5
1.0
1.0
1.0
1.0
0.75
0.5
1.0
1.0
1.0
1.0
1.0
1.0
1.0
0.5
1.0
0.5
1.0
0.75
1.0
1.0
1.0
1.0
1.0
1.0
0.5
1.0
1.0
1.0
1.0
1.0
0.5
1.0
0.5
1.0
1.0
0.75
0.75
1.0
1.0
0.5
1.0
0.75
1.0
1.0
1.0
0.75
1.0
0.75
1.0
1.0
0.75
1.0
1.0
1.0
0.5
1.0
1.0
0.75
1.0
0.5
1.0
0.5
1.0
1.0
0.75
1.0
1.0
0.75
1.0
1.0
0.75
1.0
1.0
1.0
1.0
1.0
0.5
0.75
1.0
1.0
1.0
0.75
1.0
1.0
1.0
1.0
1.0
1.0
0.5
1.0
1.0
1.0
1.0
1.0
0.5
0.75
1.0
1.0
0.75
1.0
0.75
0.5
1.0
1.0
0.5
1.0
0.5
1.0
1.0
1.0
1.0
1.0
0.5
1.0
1.0
1.0
1.0
1.0
1.0
1.0
1.0
1.0
1.0
1.0
0.75
1.0
0.75
0.5
1.0
0.5
1.0
1.0
0.75
1.0
1.0
1.0
1.0
1.0
1.0
0.75
1.0
1.0
1.0
1.0
0.5
0.75
1.0
1.0
1.0
1.0
1.0
0.75
1.0
0.5
1.0
1.0
1.0
1.0
0.75
LOOKUP_TABLE path_type 5
1.0 0.0 0.0 1.0
0.0 1.0 0.0 1.0
0.0 0.0 1.0 1.0
0.0 1.0 1.0 1.0
1.0 1.0 0.0 1.0
