# vtk DataFile Version 2.0
Radiative paths
ASCII
DATASET POLYDATA
POINTS 2345 float
649.506726 838.423702 319.343170
-145.988403 42.928574 319.343170
1104.124798 1047.747189 349.916779
308.629669 252.252060 349.916779
244.587143 -870.923569 349.916779
547.635998 941.588543 1204.391113
-247.859131 146.093414 1204.391113
770.582321 796.662915 16.109079
-24.912807 1.167786 16.109079
583.181347 897.274365 1444.569336
-212.313782 101.779236 1444.569336
534.413738 960.829327 656.086548
-261.081390 165.334198 656.086548
783.005818 584.269598 656.086548
707.282627 810.343784 1076.932617
-88.212502 14.848655 1076.932617
1027.383206 920.532910 18.853851
231.888077 125.037781 18.853851
-377.188282 -820.822106 18.853851
688.844914 817.470680 1094.477295
-106.650215 21.975552 1094.477295
574.410839 907.342152 1293.663818
-221.084290 111.847023 1293.663818
838.924572 799.051534 499.139069
43.429443 3.556405 499.139069
0.000000 26.105625 499.139069
1097.347088 1033.107617 681.217468
301.851959 237.612488 681.217468
187.665569 -881.577579 681.217468
526.496227 973.163372 1449.162231
-268.998901 177.668243 1449.162231
1045.258160 944.235501 113.781807
249.763031 148.740372 113.781807
501.527539 1017.198437 947.916870
-293.967590 221.703308 947.916870
813.907511 417.248063 947.916870
1059.815624 965.729275 1497.901611
264.320496 170.234146 1497.901611
-152.517785 -874.692125 1497.901611
664.156079 829.633656 352.603546
-131.339050 34.138527 352.603546
927.365353 829.922493 485.795563
131.870224 34.427364 485.795563
907.007092 819.650170 341.999634
111.511963 24.155041 341.999634
706.655682 810.568959 1386.943115
-88.839447 15.073831 1386.943115
862.477619 803.944257 1148.698242
66.982491 8.449128 1148.698242
787.838632 795.639906 1019.330811
-7.656497 0.144777 1019.330811
859.082588 803.131940 827.549805
63.587460 7.636811 827.549805
930.628903 831.779804 12.238473
135.133774 36.284676 12.238473
1048.762570 949.280407 542.427429
253.267441 153.785278 542.427429
602.622540 876.583966 1323.231934
-192.872589 81.088837 1323.231934
0.000000 263.738464 1323.231934
652.464138 836.508499 1270.006104
-143.030991 41.013371 1270.006104
766.649288 797.081839 953.994751
-28.845840 1.586710 953.994751
622.725018 858.069287 13.632685
-172.770111 62.574158 13.632685
1111.940899 1065.850994 163.483047
316.445770 270.355865 163.483047
664.875378 829.242512 787.711731
-130.619751 33.747383 787.711731
1008.378399 897.942791 298.457489
212.883270 102.447662 298.457489
-485.396587 -779.612597 298.457489
537.176617 956.644192 445.736633
-258.318512 161.149063 445.736633
1029.753201 923.502148 1123.981934
234.258072 128.007019 1123.981934
-328.237234 -846.274292 1123.981934
514.427136 993.287365 552.241699
-281.067993 197.792236 552.241699
801.020820 505.540215 552.241699
994.274304 882.618267 1139.001343
198.779175 87.123138 1139.001343
-578.337645 -726.335200 1139.001343
1062.895397 970.589291 259.730713
267.400269 175.094162 259.730713
-99.484786 -888.400237 259.730713
899.633999 816.415920 685.343750
104.138870 20.920792 685.343750
945.896511 841.281513 517.169617
150.401382 45.786385 517.169617
769.917801 796.713934 705.140076
-25.577328 1.218805 705.140076
962.316708 853.222401 1219.201538
166.821579 57.727272 1219.201538
990.437344 878.692631 792.072754
194.942215 83.197502 792.072754
-582.174605 -730.260836 792.072754
860.004276 803.347623 835.208374
64.509148 7.852494 835.208374
1032.247021 926.752178 1181.206543
236.751892 131.257050 1181.206543
-325.743414 -843.024261 1181.206543
625.558087 855.732884 788.533691
-169.937042 60.237755 788.533691
563.153561 921.115055 380.630402
-232.341568 125.619926 380.630402
0.000000 265.352478 380.630402
560.583386 924.403362 1034.696533
-234.911743 128.908234 1034.696533
729.167585 708.715187 1034.696533
1005.102764 894.264157 851.599548
209.607635 98.769028 851.599548
-488.672222 -783.291232 851.599548
737.904572 801.728610 1431.438965
-57.590557 6.233481 1431.438965
678.592350 822.149042 1200.370361
-116.902779 26.653913 1200.370361
842.880310 799.704629 572.437866
47.385181 4.209500 572.437866
0.000000 24.370949 572.437866
709.084240 809.696722 1210.660156
-86.410889 14.201593 1210.660156
742.603314 800.772578 1319.570801
-52.891815 5.277449 1319.570801
533.334362 962.464367 1352.859863
-262.160767 166.969238 1352.859863
781.926442 585.904638 1352.859863
596.434429 882.942822 1153.529297
-199.060699 87.447693 1153.529297
652.967495 836.182530 728.551514
-142.527634 40.687401 728.551514
1041.811199 939.511364 634.630554
246.316071 144.016235 634.630554
-268.497069 -856.279955 634.630554
875.037380 807.521712 1382.056152
79.542252 12.026583 1382.056152
697.499691 813.939896 230.984329
-97.995438 18.444767 230.984329
833.642964 798.235739 769.072754
38.147835 2.740611 769.072754
0.000000 22.547541 769.072754
616.648876 863.286579 845.314270
-178.846252 67.791451 845.314270
876.824940 808.087418 580.886108
81.329811 12.592289 580.886108
968.403927 858.183674 1495.960693
172.908798 62.688545 1495.960693
700.098324 812.924076 1155.639404
-95.396805 17.428947 1155.639404
527.167309 972.086392 221.472275
-268.327820 176.591263 221.472275
576.055783 905.440556 330.574768
-219.439346 109.945427 330.574768
676.491756 790.336828 330.574768
989.891400 878.134083 1270.855469
194.396271 82.638954 1270.855469
-582.720549 -730.819384 1270.855469
1109.905255 1061.024059 834.514343
314.410126 265.528931 834.514343
300.018483 -859.379003 834.514343
642.164623 843.304096 969.297424
-153.330505 47.808968 969.297424
926.544689 829.476235 887.090576
131.049561 33.981106 887.090576
619.266857 860.953427 658.582947
-176.228271 65.458298 658.582947
1067.989819 978.742642 390.075378
272.494690 183.247513 390.075378
-44.027599 -896.307350 390.075378
515.003857 992.305859 859.538330
-280.491272 196.810730 859.538330
801.597541 504.558709 859.538330
575.739498 905.803021 412.670715
-219.755630 110.307892 412.670715
482.326184 1058.022534 1189.410278
-313.168945 262.527405 1189.410278
1108.850872 1058.523907 406.699341
313.355743 263.028778 406.699341
298.964101 -861.879155 406.699341
1051.643261 953.434277 846.114563
256.148132 157.939148 846.114563
-210.059994 -865.913878 846.114563
643.613125 842.285248 342.443512
-151.882004 46.790119 342.443512
819.316467 796.579118 1312.548462
23.821339 1.083990 1312.548462
0.000000 18.531040 1312.548462
799.402626 795.544666 1165.063110
3.907497 0.049537 1165.063110
0.000000 3.957034 1165.063110
646.057705 840.657265 1444.190063
-149.437424 45.162136 1444.190063
729.910610 803.599270 334.041260
-65.584518 8.104141 334.041260
704.152447 811.468010 914.815369
-91.342682 15.972881 914.815369
1041.401409 938.949780 463.807861
245.906281 143.454651 463.807861
951.528149 845.205010 788.494812
156.033020 49.709881 788.494812
721.325100 805.919428 1263.983154
-74.170029 10.424299 1263.983154
639.169872 845.410572 635.841248
-156.325256 49.915443 635.841248
578.963360 902.108349 851.076904
-216.531769 106.613220 851.076904
597.568524 881.777439 750.467102
-197.926605 86.282310 750.467102
618.921911 859.834877 750.467102
745.786751 800.155187 659.478394
-49.708378 4.660058 659.478394
701.458752 812.435471 1451.219116
-94.036377 16.940342 1451.219116
783.764036 795.796089 507.484039
-11.731092 0.300960 507.484039
846.723690 800.450008 134.541031
51.228561 4.954879 134.541031
879.920468 809.067057 837.928772
84.425339 13.571928 837.928772
1042.739788 940.784023 154.606155
247.244659 145.288895 154.606155
-267.568481 -855.007296 154.606155
559.783398 925.426861 1053.352417
-235.711731 129.931732 1053.352417
545.953076 943.964688 539.451782
-249.542053 148.469559 539.451782
0.000000 264.278564 539.451782
643.603298 842.292168 888.796997
-151.891830 46.797039 888.796997
872.427212 806.695671 798.901062
76.932083 11.200542 798.901062
1034.351284 929.494518 361.178894
238.856155 133.999390 361.178894
-323.639151 -840.281921 361.178894
861.013172 803.583714 547.988525
65.518044 8.088585 547.988525
778.891285 796.024999 439.361328
-16.603844 0.529870 439.361328
982.648113 870.952023 491.981873
187.152985 75.456894 491.981873
557.714382 928.074002 350.594421
-237.780746 132.578873 350.594421
726.298581 712.385826 350.594421
492.087383 1036.325665 1088.761719
-303.407745 240.830536 1088.761719
0.000000 263.561707 1088.761719
1052.675518 954.922802 103.607071
257.180389 159.427673 103.607071
603.472790 875.710255 379.741882
-192.022339 80.215126 379.741882
0.000000 262.059570 379.741882
1045.674618 944.827633 1422.327271
250.179489 149.332504 1422.327271
-216.028637 -874.520522 1422.327271
886.842320 811.469629 200.324799
91.347191 15.974501 200.324799
747.140553 799.892632 1065.684204
-48.354576 4.397503 1065.684204
731.912808 803.130737 1393.960815
-63.582321 7.635608 1393.960815
616.749737 863.196675 1378.045898
-178.745392 67.701546 1378.045898
986.276791 874.444287 1276.980957
190.781662 78.949158 1276.980957
679.021733 821.936440 79.680359
-116.473396 26.441311 79.680359
597.467404 881.881329 289.834961
-198.027725 86.386200 289.834961
513.617382 994.747723 1279.892212
-281.877747 199.252594 1279.892212
0.000000 263.948517 1279.892212
904.014507 818.308615 476.498169
108.519379 22.813486 476.498169
933.380718 833.415776 726.841919
137.885590 37.920647 726.841919
977.691509 866.272167 823.096863
182.196381 70.777039 823.096863
567.348553 915.892330 640.551208
-228.146576 120.397202 640.551208
1006.630779 895.980175 1081.285645
211.135651 100.485046 1081.285645
1099.240978 1037.093868 594.653442
303.745850 241.598740 594.653442
574.562161 907.158962 270.623138
-220.932968 111.663834 270.623138
-0.000015 261.315155 270.623138
1106.949658 1054.052899 223.734558
311.454529 258.557770 223.734558
247.412003 -864.617859 223.734558
1095.167095 1028.519161 1456.702026
299.671967 233.024033 1456.702026
185.485576 -886.166034 1456.702026
979.601620 868.020069 592.212280
184.106491 72.524940 592.212280
760.883030 797.747525 979.613342
-34.612099 2.252397 979.613342
1106.144695 1052.256054 1073.465698
[...]
CELL_DATA 1000
SCALARS Radiative_path_type float 1
LOOKUP_TABLE path_type
1.0
0.75
1.0
1.0
1.0
0.75
1.0
0.75
1.0
1.0
0.5
0.75
1.0
1.0
0.75
0.75
1.0
1.0
1.0
1.0
1.0
1.0
1.0
1.0
1.0
0.5
1.0
1.0
1.0
1.0
1.0
0.75
1.0
0.75
0.75
0.75
0.75
1.0
1.0
1.0
1.0
0.75
1.0
0.75
1.0
0.5
0.75
0.75
1.0
1.0
0.5
1.0
1.0
0.75
1.0
1.0
0.75
1.0
1.0
0.5
1.0
1.0
1.0
1.0
1.0
0.75
0.75
0.75
1.0
1.0
1.0
0.75
0.75
1.0
1.0
0.75
0.75
1.0
0.5
0.5
1.0
1.0
1.0
1.0
1.0
1.0
1.0
1.0
0.75
1.0
1.0
1.0
1.0
1.0
0.75
1.0
0.5
1.0
1.0
0.75
1.0
1.0
1.0
0.75
0.5
1.0
0.5
0.75
1.0
1.0
1.0
1.0
1.0
1.0
1.0
0.5
1.0
1.0
1.0
1.0
1.0
1.0
0.5
0.75
0.75
1.0
1.0
1.0
0.5
1.0
0.75
1.0
1.0
1.0
0.75
1.0
0.5
1.0
1.0
0.75
1.0
0.5
1.0
0.75
1.0
1.0
0.75
1.0
1.0
0.75
1.0
0.75
0.5
1.0
1.0
1.0
0.75
1.0
1.0
1.0
1.0
0.75
1.0
1.0
1.0
0.5
0.75
1.0
1.0
1.0
1.0
0.75
1.0
1.0
1.0
1.0
1.0
1.0
0.75
0.5
1.0
1.0
1.0
1.0
1.0
1.0
1.0
1.0
1.0
1.0
1.0
0.75
0.75
0.75
1.0
1.0
0.75
1.0
1.0
1.0
1.0
0.75
1.0
0.75
0.75
1.0
0.75
1.0
1.0
0.5
1.0
1.0
0.75
0.5
1.0
1.0
1.0
1.0
1.0
0.5
1.0
1.0
1.0
1.0
1.0
0.75
0.75
0.75
0.5
1.0
0.75
1.0
1.0
1.0
1.0
1.0
1.0
1.0
1.0
1.0
1.0
0.75
0.75
1.0
1.0
0.75
1.0
0.75
1.0
1.0
1.0
1.0
1.0
0.75
0.75
1.0
1.0
0.75
1.0
0.75
1.0
0.5
1.0
0.5
1.0
1.0
1.0
1.0
1.0
0.75
0.75
1.0
0.75
1.0
1.0
1.0
1.0
1.0
0.75
0.5
0.5
1.0
1.0
0.75
1.0
1.0
1.0
1.0
1.0
1.0
1.0
1.0
1.0
1.0
1.0
0.75
1.0
1.0
0.75
1.0
1.0
1.0
1.0
1.0
0.75
1.0
0.5
0.75
1.0
0.75
0.5
1.0
0.75
1.0
1.0
0.75
0.5
0.75
1.0
0.75
0.5
1.0
1.0
1.0
1.0
1.0
1.0
1.0
0.75
1.0
0.5
0.75
0.75
0.75
1.0
0.75
1.0
1.0
1.0
1.0
0.5
1.0
1.0
0.5
1.0
1.0
0.75
1.0
1.0
0.75
0.5
0.75
0.75
0.5
1.0
1.0
1.0
1.0
1.0
1.0
0.75
1.0
0.5
1.0
1.0
1.0
0.5
1.0
1.0
1.0
1.0
0.75
1.0
0.75
0.5
1.0
1.0
1.0
1.0
0.5
0.5
1.0
1.0
1.0
1.0
1.0
0.75
1.0
1.0
0.5
1.0
1.0
1.0
0.5
0.75
0.75
0.5
1.0
0.75
1.0
1.0
1.0
0.75
0.75
1.0
1.0
1.0
1.0
0.5
1.0
1.0
1.0
0.75
0.75
1.0
0.5
0.5
0.75
0.75
1.0
1.0
1.0
1.0
1.0
1.0
0.75
1.0
1.0
1.0
1.0
1.0
0.75
1.0
1.0
1.0
0.75
0.5
1.0
1.0
1.0
1.0
1.0
0.75
0.5
0.75
1.0
1.0
1.0
0.75
1.0
1.0
1.0
1.0
1.0
1.0
1.0
1.0
1.0
1.0
1.0
0.75
1.0
1.0
1.0
1.0
0.75
1.0
1.0
1.0
1.0
0.75
1.0
1.0
1.0
1.0
1.0
1.0
1.0
1.0
0.75
0.5
1.0
1.0
1.0
1.0
0.75
1.0
1.0
0.75
1.0
1.0
1.0
1.0
1.0
0.5
1.0
0.75
0.75
1.0
1.0
0.5
1.0
1.0
1.0
1.0
1.0
1.0
1.0
1.0
1.0
1.0
1.0
1.0
1.0
1.0
1.0
1.0
1.0
1.0
0.5
0.5
1.0
1.0
1.0
1.0
1.0
0.75
0.5
1.0
1.0
1.0
1.0
1.0
0.75
0.75
1.0
0.75
1.0
1.0
1.0
1.0
0.75
0.5
0.5
0.75
1.0
0.75
0.5
0.5
0.5
0.5
1.0
1.0
1.0
1.0
1.0
1.0
0.5
1.0
1.0
1.0
1.0
0.75
1.0
0.75
0.75
1.0
0.5
1.0
1.0
0.75
1.0
0.5
1.0
0.75
0.75
1.0
1.0
0.75
0.5
0.5
1.0
0.75
1.0
1.0
1.0
0.5
1.0
1.0
0.75
1.0
1.0
0.75
1.0
1.0
1.0
0.5
1.0
1.0
1.0
1.0
1.0
1.0
0.5
1.0
1.0
1.0
1.0
0.75
1.0
1.0
1.0
0.5
1.0
1.0
1.0
0.75
1.0
0.75
1.0
0.75
0.75
0.75
1.0
1.0
1.0
0.75
1.0
1.0
1.0
0.75
1.0
0.75
0.75
0.5
0.5
0.5
1.0
1.0
1.0
0.5
0.5
1.0
1.0
1.0
1.0
0.5
1.0
1.0
1.0
1.0
0.5
0.75
1.0
1.0
1.0
0.75
0.75
1.0
1.0
0.5
1.0
1.0
1.0
0.75
1.0
0.5
0.75
0.75
0.75
0.75
1.0
1.0
0.5
1.0
0.75
0.5
1.0
0.5
1.0
1.0
1.0
1.0
1.0
1.0
1.0
0.75
1.0
1.0
1.0
0.5
0.5
1.0
0.5
1.0
1.0
0.75
1.0
0.75
0.75
1.0
1.0
1.0
1.0
0.75
1.0
1.0
1.0
1.0
0.5
1.0
1.0
1.0
1.0
1.0
1.0
0.75
0.5
1.0
1.0
1.0
1.0
0.75
0.75
0.5
1.0
0.75
0.75
1.0
0.5
0.75
1.0
1.0
0.75
1.0
1.0
1.0
1.0
1.0
1.0
0.5
1.0
0.5
1.0
1.0
1.0
0.5
1.0
1.0
1.0
1.0
1.0
0.75
1.0
1.0
0.5
1.0
1.0
0.75
1.0
1.0
1.0
1.0
1.0
0.5
1.0
1.0
1.0
0.5
1.0
1.0
0.75
0.75
1.0
1.0
0.5
0.5
0.75
0.5
1.0
1.0
1.0
1.0
1.0
1.0
1.0
1.0
0.5
1.0
0.75
0.75
0.5
0.75
0.75
1.0
0.5
1.0
0.75
1.0
1.0
1.0
0.5
0.75
1.0
0.75
1.0
1.0
1.0
0.75
0.5
1.0
0.75
0.75
0.75
1.0
1.0
1.0
1.0
0.75
0.5
1.0
1.0
0.75
0.75
1.0
1.0
1.0
0.75
0.75
1.0
1.0
1.0
0.75
1.0
1.0
0.5
1.0
1.0
1.0
1.0
1.0
1.0
1.0
0.75
0.75
1.0
1.0
1.0
1.0
1.0
1.0
0.5
1.0
1.0
0.75
0.75
0.75
1.0
1.0
1.0
1.0
1.0
1.0
0.75
0.5
1.0
1.0
1.0
1.0
1.0
0.75
1.0
1.0
1.0
1.0
1.0
0.75
1.0
1.0
0.75
1.0
1.0
1.0
1.0
0.75
0.5
1.0
1.0
1.0
1.0
1.0
1.0
1.0
1.0
1.0
0.75
1.0
0.75
0.75
0.75
1.0
1.0
1.0
1.0
1.0
0.75
1.0
1.0
1.0
1.0
1.0
1.0
1.0
0.75
1.0
1.0
0.75
1.0
1.0
1.0
1.0
0.75
1.0
1.0
0.75
1.0
1.0
0.75
1.0
1.0
1.0
0.75
0.5
1.0
1.0
1.0
1.0
1.0
1.0
1.0
0.5
0.5
1.0
1.0
0.75
1.0
0.5
1.0
0.75
1.0
1.0
0.75
0.75
1.0
0.75
0.75
1.0
0.5
0.5
1.0
0.5
1.0
1.0
1.0
1.0
0.75
0.75
0.75
0.5
1.0
0.75
1.0
0.75
1.0
1.0
0.75
0.5
1.0
0.75
1.0
1.0
1.0
0.75
1.0
1.0
0.5
0.5
1.0
0.5
1.0
0.75
1.0
0.75
0.5
1.0
1.0
0.75
0.75
0.75
1.0
LOOKUP_TABLE path_type 5
1.0 0.0 0.0 1.0
0.0 1.0 0.0 1.0
0.0 0.0 1.0 1.0
0.0 1.0 1.0 1.0
1.0 1.0 0.0 1.0
