# vtk DataFile Version 2.0
Radiative paths
ASCII
DATASET POLYDATA
POINTS 2695 float
649.506726 838.423702 319.343170
-145.988403 42.928574 319.343170
254.491118 1094.233070 319.343170
1104.124798 1047.747189 349.916779
308.629669 252.252060 349.916779
244.587143 -870.923569 349.916779
547.635998 941.588543 1204.391113
-247.859131 146.093414 1204.391113
770.582321 796.662915 16.109079
-24.912807 1.167786 16.109079
-689.653452 908.771728 16.109079
583.181347 897.274365 1444.569336
-212.313782 101.779236 1444.569336
534.413738 960.829327 656.086548
-261.081390 165.334198 656.086548
783.005818 584.269598 656.086548
707.282627 810.343784 1076.932617
-88.212502 14.848655 1076.932617
-195.800825 1134.692309 1076.932617
1027.383206 920.532910 18.853851
231.888077 125.037781 18.853851
-377.188282 -820.822106 18.853851
688.844914 817.470680 1094.477295
-106.650215 21.975552 1094.477295
-42.033675 1145.118323 1094.477295
574.410839 907.342152 1293.663818
-221.084290 111.847023 1293.663818
838.924572 799.051534 499.139069
43.429443 3.556405 499.139069
0.000000 26.105625 499.139069
-257.393829 159.748383 499.139069
-341.782579 1281.578816 499.139069
1004.754406 893.872936 198.463882
209.259277 98.377808 198.463882
-489.020580 -783.682452 198.463882
499.830456 1020.457821 946.384888
-295.664673 224.962692 946.384888
812.210428 420.507447 946.384888
592.983303 886.566403 1455.608887
-202.511826 91.071274 1455.608887
0.000000 262.962524 1455.608887
857.691050 990.967360 1455.608887
909.630657 820.826296 1350.243042
114.135529 25.331167 1350.243042
537.392376 956.317379 189.721176
-258.102753 160.822250 189.721176
0.000000 264.384827 189.721176
1044.087209 683.320226 189.721176
1067.847088 978.508526 1291.433228
272.351959 183.013397 1291.433228
834.854347 798.422849 6.521702
39.359219 2.927720 6.521702
0.000000 23.363621 6.521702
-254.434021 155.469589 6.521702
-398.053288 1271.264583 6.521702
744.731297 800.359880 1130.106934
-50.763832 4.864751 1130.106934
-491.217924 1040.058090 1130.106934
581.726147 898.942089 675.821838
-213.768982 103.446960 675.821838
0.000000 265.788208 675.821838
895.931102 946.179609 675.821838
1097.286572 1032.980221 159.731003
301.791443 237.485092 159.731003
187.605053 -881.704975 159.731003
544.044445 946.695782 391.140778
-251.450684 151.200653 391.140778
692.426647 815.984514 197.448486
-103.068481 20.489386 197.448486
-124.617745 1145.282990 197.448486
1080.568279 1000.470242 653.567810
285.073151 204.975113 653.567810
939.904598 837.401196 368.154205
144.409470 41.906067 368.154205
947.680935 842.498928 1334.744141
152.185806 47.003799 1334.744141
530.164959 967.275677 571.751831
-265.330170 171.780548 571.751831
1010.736294 900.590771 1339.770752
215.241165 105.095642 1339.770752
-483.038692 -776.964617 1339.770752
1111.648449 1065.157543 494.151184
316.153320 269.662415 494.151184
647.105862 839.978481 1489.251221
-148.389267 44.483353 1489.251221
495.955822 1028.349438 1091.140015
-299.539307 232.854309 1091.140015
794.161588 795.544666 131.575500
-1.333541 0.049537 131.575500
-796.828656 795.544652 131.575500
567.678082 915.493366 1002.455994
-227.817047 119.998238 1002.455994
555.467236 930.995526 697.225281
-240.027893 135.500397 697.225281
0.000000 262.855377 697.225281
993.779227 790.138811 697.225281
1003.408047 892.363690 666.436584
207.912918 96.868561 666.436584
-531.262178 -751.214682 666.436584
1069.366345 981.063732 521.611450
273.871216 185.568604 521.611450
776.655857 796.196623 466.470428
-18.839272 0.701494 466.470428
-683.579916 908.305436 466.470428
1069.250500 980.868405 122.055176
273.755371 185.373276 122.055176
570.335369 912.276272 208.113007
-225.159760 116.781143 208.113007
-0.000015 269.295532 208.113007
931.433878 900.212314 208.113007
489.383434 1042.220104 358.394440
-306.111694 246.724976 358.394440
0.000000 269.658722 358.394440
1121.855982 353.707703 358.394440
1086.688671 1011.842785 835.503052
291.193542 216.347656 835.503052
1111.534741 1064.887921 148.099426
316.039612 269.392792 148.099426
607.012951 872.231243 1410.926147
-188.482178 76.736115 1410.926147
815.102392 796.255585 86.756767
19.607264 0.760456 86.756767
0.000000 15.121064 86.756767
-300.799255 235.430252 86.756767
-268.371076 1359.962810 86.756767
774.821881 796.337425 456.288361
-20.673248 0.842297 456.288361
-685.413893 908.446238 456.288361
951.062298 844.877339 172.277878
155.567169 49.382210 172.277878
563.052639 921.244183 673.064758
-232.442490 125.749054 673.064758
0.000000 265.542297 673.064758
964.079328 845.349251 673.064758
1033.253613 928.063992 586.286743
237.758484 132.568863 586.286743
-324.736822 -841.712448 586.286743
560.583386 924.403362 1034.696533
-234.911743 128.908234 1034.696533
729.167585 708.715187 1034.696533
1005.102764 894.264157 851.599548
209.607635 98.769028 851.599548
-488.672222 -783.291232 851.599548
737.904572 801.728610 1431.438965
-57.590557 6.233481 1431.438965
-417.508909 1072.105793 1431.438965
678.592350 822.149042 1200.370361
-116.902779 26.653913 1200.370361
33.498873 1141.554927 1200.370361
842.880310 799.704629 572.437866
47.385181 4.209500 572.437866
0.000000 24.370949 572.437866
-229.478195 122.009338 572.437866
-466.469182 1221.763985 572.437866
530.416393 966.884381 912.624756
-265.078735 171.389252 912.624756
779.008473 590.324651 912.624756
731.529679 803.220391 1118.364258
-63.965450 7.725263 1118.364258
596.452191 882.924565 579.998657
-199.042938 87.429436 579.998657
810.913388 795.937421 19.361488
15.418260 0.442292 19.361488
0.000000 13.661892 19.361488
-854.055583 745.928221 19.361488
528.276623 970.306149 217.929703
-267.218506 174.811020 217.929703
0.000000 266.069275 217.929703
1064.627834 629.652229 217.929703
694.405621 815.186913 964.235901
-101.089508 19.691784 964.235901
1061.334606 968.093121 471.824921
265.839478 172.597992 471.824921
-101.045577 -890.896407 471.824921
710.117199 809.368523 1009.303101
-85.377930 13.873394 1009.303101
-278.373547 1122.195418 1009.303101
834.354447 798.345634 960.531494
38.859318 2.850506 960.531494
0.000000 23.026850 960.531494
-254.064636 154.941040 960.531494
-397.680182 1270.736503 960.531494
745.296623 800.250241 323.854034
-50.198505 4.755113 323.854034
-490.652597 1039.948452 323.854034
1097.177532 1032.750683 671.175110
301.682404 237.255554 671.175110
187.496013 -881.934513 671.175110
798.954078 795.544666 740.728271
3.458950 0.049537 740.728271
0.000000 3.508487 740.728271
-795.495115 799.003602 740.728271
1070.794720 983.472210 1108.174927
275.299591 187.977081 1108.174927
722.718746 805.536446 489.186005
-72.776382 10.041317 489.186005
607.499554 871.762936 1275.586670
-187.995575 76.267807 1275.586670
790.067558 795.554469 1393.963379
-5.427571 0.059340 1393.963379
-737.693901 854.114924 1393.963379
836.641915 798.698956 622.812256
41.146786 3.203827 622.812256
0.000000 24.567858 622.812256
-255.754852 157.359634 622.812256
-399.374120 1273.154628 622.812256
802.507356 795.615210 133.378571
7.012227 0.120082 133.378571
0.000000 6.132358 133.378571
-854.055583 738.398687 133.378571
1025.334072 917.992466 106.835114
229.838943 122.497337 106.835114
1073.484722 988.007977 517.500977
277.989594 192.512848 517.500977
-38.532696 -887.042015 517.500977
544.184155 946.495877 1200.342896
-251.310974 151.000748 1200.342896
1075.939800 992.234524 1064.074707
280.444672 196.739395 1064.074707
14.533236 -896.382819 1064.074707
1012.239559 902.278980 487.080872
216.744431 106.783852 487.080872
-481.535427 -775.276408 487.080872
1052.814831 955.123669 1297.874878
257.319702 159.628540 1297.874878
-208.888424 -864.224486 1297.874878
1049.365216 950.149410 1368.957275
253.870087 154.654282 1368.957275
1076.025524 992.387051 1342.207275
280.530396 196.891922 1342.207275
14.618960 -896.230292 1342.207275
925.059567 828.668644 101.431000
129.564438 33.173515 101.431000
491.809735 1036.930905 859.007446
-303.685394 241.435776 859.007446
1066.594616 976.505429 433.351044
271.099487 181.010300 433.351044
-95.785568 -882.484100 433.351044
808.774365 795.855431 780.364380
13.279236 0.360302 780.364380
0.000000 11.745905 780.364380
-854.055583 744.012234 780.364380
799.402626 795.544666 1165.063110
3.907497 0.049537 1165.063110
0.000000 3.957034 1165.063110
-795.495115 799.452149 1165.063110
1037.206158 933.215084 342.115082
241.711029 137.719955 342.115082
-320.784277 -836.561356 342.115082
929.413555 831.057278 956.924988
133.918427 35.562149 956.924988
567.343991 915.897869 1442.170532
-228.151138 120.402740 1442.170532
703.282755 751.319522 1442.170532
950.459637 844.453427 1097.332153
154.964508 48.958298 1097.332153
872.993771 806.874971 466.226929
77.498642 11.379842 466.226929
771.772894 796.571510 139.262177
-23.722235 1.076381 139.262177
-688.462879 908.680323 139.262177
491.095104 1038.488751 687.872070
-304.400024 242.993622 687.872070
1048.320355 948.642742 1333.152100
252.825226 153.147614 1333.152100
783.002976 795.825261 634.020203
-12.492153 0.330132 634.020203
-744.758482 854.385716 634.020203
660.360806 831.780140 313.448700
-135.134323 36.285011 313.448700
183.694532 1115.160873 313.448700
1046.893078 946.584637 778.867310
251.397949 151.089508 778.867310
-214.810177 -872.763518 778.867310
957.620541 849.642666 70.281654
162.125412 54.147537 70.281654
1011.878292 901.873287 280.982056
216.383163 106.378159 280.982056
835.620449 798.541180 574.855408
40.125320 3.046052 574.855408
0.000000 23.879723 574.855408
-255.000046 156.279587 574.855408
-398.615591 1272.075050 574.855408
1066.390026 976.178250 693.988708
270.894897 180.683121 693.988708
899.574764 816.392046 1348.120605
104.079636 20.896917 1348.120605
819.591816 796.600258 702.589966
24.096687 1.105129 702.589966
0.000000 18.753847 702.589966
-303.506531 241.045883 702.589966
-215.320125 1362.584157 702.589966
747.841202 799.756749 568.001343
-47.653927 4.261621 568.001343
-488.108019 1039.454960 568.001343
890.541592 812.798247 396.095581
95.046463 17.303118 396.095581
1103.200512 1045.684063 1116.273682
[...]
CELL_DATA 1000
SCALARS Radiative_path_type float 1
LOOKUP_TABLE path_type
0.75
0.75
1.0
0.75
1.0
0.75
0.75
0.75
0.75
1.0
0.5
0.75
0.75
0.5
1.0
0.5
1.0
0.5
0.75
0.5
0.75
1.0
0.75
1.0
1.0
1.0
1.0
0.75
1.0
1.0
1.0
0.75
1.0
0.5
0.75
1.0
0.75
1.0
0.5
0.5
1.0
1.0
1.0
0.5
0.75
1.0
0.5
0.75
0.75
0.75
0.75
0.75
0.5
0.75
1.0
1.0
0.5
0.5
1.0
0.75
0.75
0.5
0.75
0.75
0.5
1.0
1.0
1.0
0.75
0.5
0.5
1.0
0.75
1.0
0.75
0.75
0.75
1.0
0.75
1.0
1.0
0.75
0.5
0.5
0.75
1.0
0.75
1.0
1.0
0.75
1.0
1.0
0.75
0.75
0.75
1.0
1.0
0.5
1.0
1.0
0.5
0.75
1.0
1.0
0.5
0.5
0.5
1.0
1.0
1.0
0.5
1.0
0.5
1.0
0.75
1.0
0.75
0.75
1.0
0.75
0.75
1.0
1.0
0.5
1.0
0.5
0.75
1.0
1.0
0.5
1.0
0.75
0.75
1.0
0.75
1.0
0.5
1.0
1.0
0.5
0.5
0.75
1.0
1.0
1.0
1.0
0.75
0.75
1.0
0.5
1.0
0.5
1.0
0.75
1.0
1.0
0.75
1.0
1.0
0.75
1.0
0.75
0.5
1.0
0.75
1.0
0.5
1.0
0.75
0.75
0.75
0.75
1.0
1.0
0.5
1.0
1.0
0.75
1.0
1.0
1.0
0.75
0.75
0.5
0.5
0.75
0.75
1.0
0.5
1.0
0.75
0.75
0.75
1.0
0.75
1.0
1.0
1.0
1.0
0.75
1.0
1.0
1.0
0.75
0.75
0.75
0.75
1.0
0.75
1.0
1.0
1.0
0.75
0.75
1.0
0.75
0.75
0.75
0.75
1.0
1.0
0.5
0.75
0.75
1.0
0.75
0.5
1.0
1.0
1.0
0.75
1.0
1.0
1.0
1.0
1.0
0.75
0.75
1.0
0.75
0.75
0.75
0.5
0.75
1.0
1.0
0.75
0.75
1.0
0.75
1.0
1.0
1.0
0.5
0.75
0.75
1.0
0.75
1.0
0.5
1.0
1.0
0.75
0.75
0.75
0.75
0.75
1.0
1.0
1.0
0.75
0.75
0.75
1.0
1.0
1.0
1.0
1.0
1.0
0.75
1.0
0.75
0.75
1.0
1.0
0.75
0.75
1.0
0.75
1.0
0.75
0.75
1.0
1.0
0.75
0.5
0.75
0.75
1.0
1.0
1.0
1.0
0.75
1.0
0.75
0.75
1.0
0.75
1.0
1.0
1.0
1.0
0.5
0.5
0.75
1.0
0.75
0.75
0.75
0.75
0.75
0.75
0.75
1.0
0.5
0.75
1.0
0.75
0.5
0.75
1.0
0.75
1.0
0.5
0.75
0.75
0.5
0.75
1.0
1.0
0.5
0.75
0.75
1.0
1.0
0.75
1.0
1.0
0.75
0.75
0.5
0.75
1.0
1.0
1.0
1.0
0.75
0.75
1.0
0.75
0.75
0.75
1.0
1.0
1.0
1.0
1.0
0.75
0.75
1.0
1.0
0.75
0.5
1.0
1.0
0.75
0.75
1.0
0.5
1.0
0.5
1.0
1.0
0.75
1.0
1.0
1.0
1.0
0.75
1.0
0.5
1.0
1.0
1.0
0.75
0.75
0.5
1.0
1.0
1.0
0.5
0.75
1.0
1.0
1.0
0.5
0.5
1.0
0.5
1.0
1.0
1.0
1.0
1.0
1.0
0.75
0.75
1.0
1.0
1.0
1.0
1.0
0.75
0.75
0.5
0.5
0.5
1.0
0.75
0.5
0.75
1.0
1.0
1.0
0.5
1.0
1.0
0.75
0.75
0.75
1.0
0.5
0.75
1.0
1.0
0.75
0.5
1.0
0.75
0.75
0.75
0.75
0.5
0.75
0.75
0.75
0.75
1.0
1.0
0.75
1.0
1.0
1.0
0.5
0.75
1.0
1.0
1.0
1.0
1.0
0.75
0.5
1.0
1.0
1.0
0.75
0.75
1.0
0.75
1.0
0.75
0.75
1.0
0.75
0.75
1.0
1.0
1.0
1.0
1.0
1.0
1.0
0.75
0.75
1.0
1.0
1.0
0.75
1.0
1.0
0.75
1.0
0.75
1.0
1.0
1.0
0.75
1.0
0.75
1.0
1.0
0.75
0.5
1.0
1.0
0.75
0.75
0.75
1.0
0.75
1.0
0.75
1.0
1.0
0.75
0.75
1.0
0.75
1.0
0.75
1.0
1.0
1.0
1.0
0.5
1.0
1.0
1.0
1.0
1.0
1.0
0.75
1.0
1.0
1.0
1.0
0.75
1.0
0.75
0.75
1.0
1.0
0.75
0.5
1.0
0.75
1.0
1.0
1.0
0.75
1.0
1.0
0.75
1.0
0.75
0.75
1.0
1.0
0.75
0.75
0.75
1.0
0.75
1.0
1.0
1.0
1.0
0.75
0.5
0.75
1.0
0.75
1.0
1.0
1.0
1.0
0.5
1.0
0.75
0.75
0.75
1.0
1.0
1.0
1.0
0.75
1.0
0.5
0.75
0.5
0.75
0.75
0.5
1.0
1.0
0.75
0.5
0.75
0.75
0.75
0.75
1.0
1.0
0.75
0.5
1.0
0.75
0.75
1.0
1.0
0.75
0.5
1.0
1.0
1.0
1.0
1.0
0.75
0.5
0.75
0.75
1.0
1.0
0.75
1.0
1.0
0.75
1.0
1.0
1.0
0.5
0.5
0.75
0.75
0.75
1.0
1.0
0.75
1.0
0.75
1.0
1.0
0.75
1.0
1.0
1.0
1.0
0.75
1.0
0.75
1.0
1.0
0.75
1.0
0.75
1.0
0.75
0.75
0.75
1.0
1.0
1.0
0.75
1.0
0.75
1.0
0.75
1.0
0.75
0.75
0.5
1.0
0.75
1.0
1.0
1.0
0.75
1.0
0.5
1.0
0.75
1.0
1.0
1.0
1.0
0.75
1.0
1.0
0.75
1.0
0.75
0.5
1.0
1.0
0.75
1.0
1.0
1.0
0.75
1.0
1.0
0.75
0.5
0.75
0.75
1.0
0.5
0.75
1.0
0.75
0.75
0.75
0.75
0.75
1.0
0.5
0.75
0.5
0.75
0.75
1.0
0.5
0.75
1.0
1.0
1.0
1.0
1.0
0.75
1.0
0.75
1.0
1.0
1.0
0.5
0.5
0.5
1.0
1.0
0.75
1.0
1.0
0.75
0.75
0.75
0.75
1.0
1.0
1.0
1.0
0.75
1.0
1.0
1.0
0.75
0.5
1.0
1.0
0.75
0.75
0.75
0.75
0.75
1.0
1.0
1.0
0.75
0.75
1.0
0.75
0.75
1.0
0.75
1.0
0.75
0.75
0.75
0.5
0.5
0.75
1.0
0.75
0.75
0.75
0.75
1.0
0.5
1.0
1.0
1.0
1.0
1.0
1.0
0.75
0.75
1.0
0.5
0.75
1.0
1.0
1.0
1.0
0.75
1.0
0.75
1.0
0.75
0.75
0.75
1.0
1.0
1.0
0.75
0.5
0.75
0.75
0.75
1.0
1.0
0.75
0.5
0.75
0.75
0.75
0.75
0.75
1.0
0.75
0.75
1.0
1.0
0.75
0.5
0.75
0.75
0.75
0.75
1.0
0.75
0.75
0.75
0.75
0.5
1.0
1.0
1.0
0.75
1.0
0.75
0.75
0.75
0.5
0.75
1.0
1.0
0.75
0.75
1.0
1.0
1.0
0.75
0.5
1.0
0.75
1.0
1.0
0.75
0.75
0.75
0.75
0.75
0.75
1.0
1.0
1.0
1.0
0.75
0.5
0.5
0.5
0.75
1.0
0.75
0.75
0.75
1.0
1.0
0.75
1.0
0.5
0.75
1.0
1.0
0.5
1.0
1.0
0.75
0.75
1.0
0.75
1.0
1.0
0.75
0.75
0.75
0.75
0.75
1.0
1.0
0.75
1.0
1.0
0.75
1.0
0.75
0.75
0.75
1.0
0.75
0.75
0.75
1.0
1.0
0.75
0.5
0.5
0.75
1.0
1.0
1.0
0.75
1.0
1.0
0.5
0.5
1.0
0.75
1.0
0.5
0.75
1.0
0.75
0.75
1.0
1.0
0.75
1.0
0.75
0.75
1.0
0.75
0.75
0.75
1.0
0.75
1.0
0.75
0.75
0.75
1.0
0.75
1.0
0.75
0.75
0.75
1.0
1.0
0.75
1.0
0.5
1.0
1.0
0.5
0.75
0.75
0.5
0.5
1.0
1.0
1.0
0.75
0.75
0.5
0.75
1.0
0.75
0.5
1.0
0.5
0.5
LOOKUP_TABLE path_type 5
1.0 0.0 0.0 1.0
0.0 1.0 0.0 1.0
0.0 0.0 1.0 1.0
0.0 1.0 1.0 1.0
1.0 1.0 0.0 1.0
