# vtk DataFile Version 2.0
Radiative paths
ASCII
DATASET POLYDATA
POINTS 2648 float
-941.483532 838.423702 319.343170
-145.988403 42.928574 319.343170
-486.865460 1047.747189 349.916779
308.629669 252.252060 349.916779
-1043.354260 941.588543 1204.391113
-247.859131 146.093414 1204.391113
279.424303 -847.685813 1204.391113
-820.407936 796.662915 16.109079
-24.912807 1.167786 16.109079
0.000000 19.414242 16.109079
303.951935 242.032501 16.109079
245.956679 1365.536633 16.109079
-1007.808911 897.274365 1444.569336
-212.313782 101.779236 1444.569336
468.077619 -794.151866 1444.569336
-1056.576519 960.829327 656.086548
-261.081390 165.334198 656.086548
-883.707630 810.343784 1076.932617
-88.212502 14.848655 1076.932617
-563.607052 920.532910 18.853851
231.888077 125.037781 18.853851
-902.145344 817.470680 1094.477295
-106.650215 21.975552 1094.477295
-1016.579418 907.342152 1293.663818
-221.084290 111.847023 1293.663818
409.832492 -819.586871 1293.663818
-752.065685 799.051534 499.139069
43.429443 3.556405 499.139069
561.834262 1001.995903 499.139069
-586.235851 893.872936 198.463882
209.259277 98.377808 198.463882
-1091.159802 1020.457821 946.384888
-295.664673 224.962692 946.384888
-998.006954 886.566403 1455.608887
-202.511826 91.071274 1455.608887
-681.359600 820.826296 1350.243042
114.135529 25.331167 1350.243042
49.518989 1148.473939 1350.243042
-1053.597882 956.317379 189.721176
-258.102753 160.822250 189.721176
-523.143170 978.508526 1291.433228
272.351959 183.013397 1291.433228
-791.142440 549.898452 1291.433228
-756.135910 798.422849 6.521702
39.359219 2.927720 6.521702
557.764038 1001.367218 6.521702
-846.258961 800.359880 1130.106934
-50.763832 4.864751 1130.106934
-1009.264111 898.942089 675.821838
-213.768982 103.446960 675.821838
-493.703686 1032.980221 159.731003
301.791443 237.485092 159.731003
-1046.945812 946.695782 391.140778
-251.450684 151.200653 391.140778
222.132042 -869.262195 391.140778
-898.563610 815.984514 197.448486
-103.068481 20.489386 197.448486
-510.421978 1000.470242 653.567810
285.073151 204.975113 653.567810
-808.049063 470.886549 653.567810
-651.085659 837.401196 368.154205
144.409470 41.906067 368.154205
-256.070052 1093.210564 368.154205
-643.309323 842.498928 1334.744141
152.185806 47.003799 1334.744141
-1060.825299 967.275677 571.751831
-265.330170 171.780548 571.751831
98.252784 -892.847286 571.751831
-580.253964 900.590771 1339.770752
215.241165 105.095642 1339.770752
-479.341809 1065.157543 494.151184
316.153320 269.662415 494.151184
-808.754613 284.054057 494.151184
-943.884396 839.978481 1489.251221
-148.389267 44.483353 1489.251221
-1095.034435 1028.349438 1091.140015
-299.539307 232.854309 1091.140015
-159.928517 -883.449366 1091.140015
-796.828670 795.544666 131.575500
-1.333541 0.049537 131.575500
0.000000 1.383078 131.575500
795.495115 796.878193 131.575500
-1023.312176 915.493366 1002.455994
-227.817047 119.998238 1002.455994
403.099735 -811.435656 1002.455994
-1035.523022 930.995526 697.225281
-240.027893 135.500397 697.225281
-587.582211 892.363690 666.436584
207.912918 96.868561 666.436584
-521.623913 981.063732 521.611450
273.871216 185.568604 521.611450
0.000000 265.866821 521.611450
-1079.554863 582.389110 521.611450
-814.334400 796.196623 466.470428
-18.839272 0.701494 466.470428
0.000000 14.499615 466.470428
300.370819 234.494995 466.470428
242.375564 1357.999127 466.470428
-521.739758 980.868405 122.055176
273.755371 185.373276 122.055176
0.000000 265.637543 122.055176
-1079.554863 582.159832 122.055176
-1020.654888 912.276272 208.113007
-225.159760 116.781143 208.113007
-1101.606823 1042.220104 358.394440
-306.111694 246.724976 358.394440
-504.301586 1011.842785 835.503052
291.193542 216.347656 835.503052
-813.028859 431.563682 835.503052
-479.455517 1064.887921 148.099426
316.039612 269.392792 148.099426
-808.868321 283.784435 148.099426
-983.977307 872.231243 1410.926147
-188.482178 76.736115 1410.926147
-775.887865 796.255585 86.756767
19.607264 0.760456 86.756767
684.347908 908.364398 86.756767
-816.168377 796.337425 456.288361
-20.673248 0.842297 456.288361
0.000000 15.983645 456.288361
301.452179 236.771042 456.288361
243.456923 1360.275174 456.288361
-639.927960 844.877339 172.277878
155.567169 49.382210 172.277878
-324.214913 1066.945054 172.277878
-1027.937618 921.244183 673.064758
-232.442490 125.749054 673.064758
-557.736645 928.063992 586.286743
237.758484 132.568863 586.286743
-1030.406872 924.403362 1034.696533
-234.911743 128.908234 1034.696533
-585.887493 894.264157 851.599548
209.607635 98.769028 851.599548
-853.085686 801.728610 1431.438965
-57.590557 6.233481 1431.438965
-912.397907 822.149042 1200.370361
-116.902779 26.653913 1200.370361
-748.109947 799.704629 572.437866
47.385181 4.209500 572.437866
487.839273 1039.402839 572.437866
-1060.573864 966.884381 912.624756
-265.078735 171.389252 912.624756
-859.460579 803.220391 1118.364258
-63.965450 7.725263 1118.364258
-994.538067 882.924565 579.998657
-199.042938 87.429436 579.998657
574.509629 -729.419081 579.998657
-780.076869 795.937421 19.361488
15.418260 0.442292 19.361488
747.684589 854.497876 19.361488
-1062.713635 970.306149 217.929703
-267.218506 174.811020 217.929703
96.364448 -889.816814 217.929703
-896.584637 815.186913 964.235901
-101.089508 19.691784 964.235901
-529.655651 968.093121 471.824921
265.839478 172.597992 471.824921
-880.873059 809.368523 1009.303101
-85.377930 13.873394 1009.303101
-756.635811 798.345634 960.531494
38.859318 2.850506 960.531494
557.264137 1001.290004 960.531494
-845.693634 800.250241 323.854034
-50.198505 4.755113 323.854034
-493.812725 1032.750683 671.175110
301.682404 237.255554 671.175110
-792.036179 795.544666 740.728271
3.458950 0.049537 740.728271
798.954065 795.544652 740.728271
-520.195538 983.472210 1108.174927
275.299591 187.977081 1108.174927
0.000000 268.694092 1108.174927
-1079.554863 585.216381 1108.174927
-868.271511 805.536446 489.186005
-72.776382 10.041317 489.186005
-983.490704 871.762936 1275.586670
-187.995575 76.267807 1275.586670
-800.922700 795.554469 1393.963379
-5.427571 0.059340 1393.963379
0.000000 4.712934 1393.963379
854.055583 736.979264 1393.963379
-754.348343 798.698956 622.812256
41.146786 3.203827 622.812256
559.551605 1001.643325 622.812256
-788.482902 795.615210 133.378571
7.012227 0.120082 133.378571
739.278556 854.175665 133.378571
-565.656185 917.992466 106.835114
229.838943 122.497337 106.835114
-716.020943 731.573696 106.835114
-517.505535 988.007977 517.500977
277.989594 192.512848 517.500977
-1046.806103 946.495877 1200.342896
-251.310974 151.000748 1200.342896
222.271752 -869.462101 1200.342896
-515.050457 992.234524 1064.074707
280.444672 196.739395 1064.074707
-578.750698 902.278980 487.080872
216.744431 106.783852 487.080872
-538.175427 955.123669 1297.874878
257.319702 159.628540 1297.874878
-541.625042 950.149410 1368.957275
253.870087 154.654282 1368.957275
-769.982940 620.862408 1368.957275
-514.964733 992.387051 1342.207275
280.530396 196.891922 1342.207275
-665.930691 828.668644 101.431000
129.564438 33.173515 101.431000
-1099.180523 1036.930905 859.007446
-303.685394 241.435776 859.007446
-219.636413 -880.420206 859.007446
-524.395642 976.505429 433.351044
271.099487 181.010300 433.351044
-782.215893 795.855431 780.364380
13.279236 0.360302 780.364380
745.545565 854.415885 780.364380
-791.587632 795.544666 1165.063110
3.907497 0.049537 1165.063110
799.402612 795.544652 1165.063110
-553.784100 933.215084 342.115082
241.711029 137.719955 342.115082
-661.576702 831.057278 956.924988
133.918427 35.562149 956.924988
-1023.646267 915.897869 1442.170532
-228.151138 120.402740 1442.170532
-640.530621 844.453427 1097.332153
154.964508 48.958298 1097.332153
-717.996487 806.874971 466.226929
77.498642 11.379842 466.226929
270.494259 1119.701866 466.226929
-819.217364 796.571510 139.262177
-23.722235 1.076381 139.262177
0.000000 18.450846 139.262177
303.249939 240.554962 139.262177
245.254683 1364.059094 139.262177
-1099.895153 1038.488751 687.872070
-304.400024 242.993622 687.872070
-220.351044 -878.862360 687.872070
-542.669903 948.642742 1333.152100
252.825226 153.147614 1333.152100
0.000000 268.270752 1333.152100
-1023.853026 734.478878 1333.152100
-807.987282 795.825261 634.020203
-12.492153 0.330132 634.020203
0.000000 11.040892 634.020203
854.055583 743.307221 634.020203
-930.629452 831.780140 313.448700
-135.134323 36.285011 313.448700
-544.097180 946.584637 778.867310
251.397949 151.089508 778.867310
0.000000 265.562744 778.867310
-1023.853026 731.770871 778.867310
-633.369717 849.642666 70.281654
162.125412 54.147537 70.281654
-579.111965 901.873287 280.982056
216.383163 106.378159 280.982056
-665.677096 804.658016 280.982056
-755.369808 798.541180 574.855408
40.125320 3.046052 574.855408
558.530140 1001.485550 574.855408
-524.600231 976.178250 693.988708
270.894897 180.683121 693.988708
-792.599502 547.568176 693.988708
-691.415493 816.392046 1348.120605
104.079636 20.896917 1348.120605
125.628899 1145.690521 1348.120605
-771.398442 796.600258 702.589966
24.096687 1.105129 702.589966
688.837332 908.709071 702.589966
-843.149056 799.756749 568.001343
-47.653927 4.261621 568.001343
0.000000 24.537415 568.001343
229.632568 122.241486 568.001343
440.973942 1227.212023 568.001343
-700.448666 812.798247 396.095581
95.046463 17.303118 396.095581
-487.789746 1045.684063 1116.273682
307.705383 250.188934 1116.273682
0.000000 267.734039 1116.273682
-1123.175628 331.776566 1116.273682
-1110.142315 1061.518505 507.152069
-314.647186 266.023376 507.152069
-1106.860974 1053.877941 144.895172
-311.365845 258.382812 144.895172
-1093.958660 1026.150112 1144.111084
-298.463531 230.654984 1144.111084
-618.042370 862.044689 325.220428
177.452759 66.549561 325.220428
-625.213207 856.017292 420.051910
170.281921 60.522163 420.051910
-1104.385143 1048.276638 1039.722778
-308.890015 252.781509 1039.722778
-224.841034 -869.074472 1039.722778
-779.156906 796.004606 1237.311523
16.338223 0.509477 1237.311523
[...]
CELL_DATA 1000
SCALARS Radiative_path_type float 1
LOOKUP_TABLE path_type
1.0
1.0
0.75
0.5
0.75
1.0
1.0
1.0
1.0
0.75
0.75
1.0
1.0
1.0
0.75
1.0
0.75
0.75
1.0
1.0
1.0
0.75
1.0
0.75
0.75
1.0
0.75
1.0
0.75
1.0
0.75
0.5
0.75
1.0
1.0
0.5
0.5
0.5
1.0
1.0
0.75
0.75
1.0
0.75
0.5
0.75
1.0
1.0
1.0
1.0
1.0
1.0
0.75
1.0
1.0
0.75
0.75
0.75
1.0
1.0
1.0
0.75
1.0
1.0
0.75
0.5
1.0
1.0
0.5
0.75
0.75
0.75
1.0
0.75
1.0
1.0
1.0
0.75
1.0
1.0
0.75
1.0
0.75
0.75
1.0
1.0
1.0
1.0
0.75
0.5
0.75
0.5
0.5
1.0
0.5
1.0
0.75
0.75
0.75
0.75
0.75
0.5
1.0
0.5
1.0
1.0
1.0
1.0
1.0
0.75
0.75
0.75
1.0
0.75
1.0
0.75
0.5
1.0
0.75
0.5
1.0
0.75
1.0
1.0
0.5
0.75
1.0
0.75
0.75
1.0
0.75
0.75
1.0
1.0
0.5
0.75
0.75
1.0
0.75
1.0
1.0
1.0
1.0
0.75
1.0
0.75
1.0
0.5
1.0
1.0
0.75
1.0
1.0
1.0
0.75
0.75
1.0
0.75
0.75
1.0
0.75
1.0
0.75
0.75
0.5
0.75
1.0
0.75
1.0
1.0
1.0
0.5
1.0
1.0
1.0
0.75
0.75
1.0
0.75
1.0
0.75
1.0
1.0
1.0
1.0
0.5
1.0
0.75
1.0
1.0
1.0
0.75
0.5
0.5
1.0
1.0
0.75
0.75
0.75
0.5
0.75
0.5
1.0
1.0
1.0
0.5
1.0
0.75
1.0
0.75
0.75
1.0
1.0
1.0
0.75
1.0
1.0
0.5
0.5
0.75
0.5
0.75
1.0
1.0
1.0
1.0
0.75
0.75
0.75
0.75
1.0
0.5
0.75
0.75
0.75
0.75
1.0
1.0
0.75
1.0
0.5
1.0
0.75
0.5
0.75
0.75
1.0
1.0
0.75
1.0
0.75
0.75
0.75
0.75
1.0
0.75
0.75
1.0
1.0
0.75
0.75
0.75
1.0
1.0
0.5
1.0
1.0
0.5
1.0
0.5
0.5
0.5
1.0
0.75
0.75
1.0
1.0
0.75
0.75
1.0
0.75
1.0
1.0
0.75
1.0
1.0
1.0
0.75
1.0
0.5
1.0
1.0
0.5
0.75
1.0
1.0
0.75
1.0
0.75
1.0
0.75
1.0
1.0
0.75
1.0
1.0
0.75
1.0
0.75
0.5
0.75
0.75
1.0
0.75
1.0
1.0
0.5
1.0
0.5
1.0
1.0
1.0
0.5
0.75
1.0
1.0
1.0
1.0
0.75
1.0
1.0
0.5
0.75
1.0
1.0
1.0
1.0
1.0
0.5
0.75
0.75
1.0
1.0
1.0
0.75
1.0
0.75
0.75
1.0
1.0
0.75
1.0
0.75
0.75
1.0
0.75
1.0
1.0
0.75
1.0
1.0
0.5
1.0
1.0
0.5
0.75
0.75
1.0
1.0
1.0
0.75
1.0
1.0
0.75
0.75
1.0
1.0
0.75
0.75
0.75
1.0
0.75
0.75
1.0
0.75
0.75
1.0
0.75
1.0
0.75
0.75
0.75
0.75
0.75
1.0
1.0
1.0
0.75
0.75
0.75
0.75
1.0
0.75
0.75
0.75
1.0
0.75
0.5
0.75
0.5
0.75
0.75
0.5
0.5
1.0
1.0
1.0
0.75
0.75
1.0
0.5
0.75
1.0
1.0
1.0
1.0
0.75
0.75
1.0
1.0
0.5
1.0
0.5
0.75
1.0
0.75
0.5
1.0
1.0
1.0
0.75
0.75
1.0
1.0
0.75
1.0
0.75
0.75
1.0
1.0
0.5
1.0
1.0
1.0
1.0
1.0
1.0
0.75
0.75
1.0
0.75
0.75
0.75
0.75
1.0
1.0
0.75
0.75
0.75
0.75
1.0
0.75
0.75
0.75
1.0
1.0
1.0
1.0
1.0
0.75
1.0
1.0
0.75
1.0
1.0
0.75
0.75
0.75
0.75
0.75
0.75
0.75
1.0
1.0
0.75
0.75
0.75
1.0
0.75
0.5
1.0
0.75
1.0
0.5
0.75
0.75
0.5
0.75
1.0
0.75
0.75
1.0
0.75
0.75
1.0
1.0
1.0
1.0
0.75
1.0
0.75
1.0
0.75
0.75
0.5
1.0
1.0
1.0
1.0
1.0
0.75
0.75
1.0
0.75
1.0
0.75
1.0
0.75
0.75
0.75
0.75
1.0
1.0
0.75
0.75
0.75
1.0
1.0
1.0
1.0
0.5
0.75
0.5
1.0
0.75
1.0
0.75
0.75
1.0
1.0
0.5
1.0
1.0
0.75
1.0
1.0
0.75
0.75
1.0
1.0
1.0
0.75
1.0
1.0
1.0
0.75
0.5
1.0
1.0
1.0
0.75
1.0
0.75
0.75
0.75
0.75
0.75
1.0
1.0
1.0
1.0
0.75
0.75
0.5
1.0
1.0
0.75
1.0
0.5
0.75
1.0
1.0
0.75
1.0
1.0
1.0
1.0
1.0
1.0
1.0
1.0
0.75
0.5
1.0
0.75
0.5
1.0
1.0
1.0
0.75
0.5
0.75
0.75
1.0
0.5
1.0
0.75
1.0
1.0
1.0
1.0
0.75
0.75
1.0
1.0
0.5
1.0
0.75
0.5
0.5
0.75
0.75
0.5
1.0
1.0
0.75
0.75
1.0
0.75
1.0
0.75
1.0
0.5
0.75
0.75
1.0
0.75
0.75
0.75
1.0
0.75
0.75
1.0
0.75
1.0
0.5
1.0
1.0
1.0
0.75
0.5
0.75
1.0
1.0
1.0
1.0
1.0
0.75
1.0
1.0
0.75
0.75
1.0
0.75
0.75
1.0
1.0
0.5
1.0
0.75
1.0
0.5
0.75
1.0
0.75
1.0
1.0
0.75
1.0
0.75
1.0
0.75
0.5
1.0
1.0
0.75
0.5
1.0
1.0
0.75
0.75
1.0
0.75
1.0
0.75
1.0
0.75
1.0
0.75
0.5
1.0
1.0
1.0
1.0
0.75
1.0
1.0
0.75
1.0
0.5
0.5
1.0
1.0
1.0
1.0
0.75
0.75
0.75
1.0
1.0
1.0
0.5
0.75
0.75
0.75
1.0
1.0
0.5
1.0
0.5
1.0
0.75
1.0
1.0
1.0
1.0
0.75
0.75
1.0
0.5
1.0
1.0
1.0
0.75
1.0
0.75
0.75
1.0
1.0
1.0
1.0
0.5
1.0
0.75
0.75
0.75
0.5
1.0
0.75
1.0
1.0
0.75
1.0
1.0
1.0
1.0
0.5
0.75
1.0
1.0
0.75
1.0
1.0
1.0
0.5
0.75
0.75
0.5
1.0
1.0
0.75
0.75
0.75
0.5
1.0
0.75
0.75
1.0
0.5
1.0
1.0
0.5
1.0
0.75
1.0
1.0
1.0
0.75
1.0
0.75
0.75
1.0
1.0
0.75
0.5
1.0
1.0
0.75
0.75
1.0
1.0
1.0
1.0
0.5
0.5
1.0
0.75
1.0
1.0
1.0
0.75
1.0
1.0
1.0
1.0
1.0
1.0
0.75
1.0
0.75
1.0
1.0
1.0
0.75
0.75
0.75
1.0
0.75
0.75
1.0
1.0
0.75
1.0
0.75
0.5
1.0
1.0
0.75
0.75
1.0
1.0
1.0
0.5
0.5
1.0
0.75
0.5
1.0
1.0
1.0
1.0
1.0
0.75
1.0
0.75
0.5
1.0
0.75
0.75
0.75
1.0
0.75
1.0
1.0
1.0
0.75
0.75
0.5
1.0
1.0
1.0
0.5
0.75
1.0
0.5
1.0
1.0
1.0
0.75
0.5
0.5
0.75
1.0
1.0
1.0
1.0
1.0
0.75
0.5
1.0
0.75
0.75
1.0
0.75
1.0
1.0
0.5
0.75
1.0
1.0
0.5
0.75
0.75
1.0
1.0
1.0
1.0
0.5
0.75
0.75
1.0
0.75
0.75
1.0
0.75
0.75
1.0
0.75
1.0
1.0
0.75
1.0
1.0
0.75
0.75
1.0
0.75
1.0
1.0
0.75
1.0
1.0
1.0
0.5
0.5
1.0
1.0
0.75
1.0
1.0
1.0
0.75
0.5
1.0
1.0
0.75
1.0
1.0
0.75
1.0
1.0
0.75
1.0
1.0
1.0
1.0
1.0
0.5
1.0
0.75
1.0
1.0
0.75
1.0
0.75
1.0
0.75
0.75
0.75
0.75
LOOKUP_TABLE path_type 5
1.0 0.0 0.0 1.0
0.0 1.0 0.0 1.0
0.0 0.0 1.0 1.0
0.0 1.0 1.0 1.0
1.0 1.0 0.0 1.0
