# vtk DataFile Version 2.0
Radiative paths
ASCII
DATASET POLYDATA
POINTS 273 float
-1167.928574 -145.988403 319.343170
-42.928574 -145.988403 319.343170
-108.374184 0.000000 319.343170
-1209.663834 196.375412 45.949997
-84.663834 196.375412 45.949997
-1249.882042 231.762451 1131.876465
-124.882042 231.762451 1131.876465
-74.684631 0.000000 1131.876465
-1141.224972 -92.044586 636.602051
-16.224972 -92.044586 636.602051
-1237.720673 -221.805893 19.798145
-112.720673 -221.805893 19.798145
-70.056458 0.000000 19.798145
-1250.037781 231.888077 18.853851
-125.037781 231.888077 18.853851
-1146.975552 -106.650215 1094.477295
-21.975552 -106.650215 1094.477295
-117.021790 0.000000 1094.477295
-1363.625885 -302.362305 1091.489868
-238.625885 -302.362305 1091.489868
-3.486374 0.000000 1091.489868
-1175.655128 -157.376877 1409.881958
-50.655128 -157.376877 1409.881958
-1259.852371 -239.548813 1123.044800
-134.852371 -239.548813 1123.044800
-61.384979 0.000000 1123.044800
-1150.331167 114.135529 1350.243042
-25.331167 114.135529 1350.243042
-127.048286 0.000000 1350.243042
-1295.234146 264.320496 1497.901611
-170.234146 264.320496 1497.901611
-1159.138527 -131.339050 352.603546
-34.138527 -131.339050 352.603546
-119.192856 0.000000 352.603546
-1179.996033 -163.238525 514.040466
-54.996033 -163.238525 514.040466
-99.854874 0.000000 514.040466
-1362.485092 301.791443 159.731003
-237.485092 301.791443 159.731003
-1276.200653 -251.450684 391.140778
-151.200653 -251.450684 391.140778
-1145.489386 -103.068481 197.448486
-20.489386 -103.068481 197.448486
-127.584259 0.000000 197.448486
-1161.284676 135.133774 12.238473
-36.284676 135.133774 12.238473
-1278.785278 253.267441 542.427429
-153.785278 253.267441 542.427429
-59.001724 0.000000 542.427429
-1176.348240 -158.362259 247.055756
-51.348240 -158.362259 247.055756
-108.225037 0.000000 247.055756
-1394.662415 316.153320 494.151184
-269.662415 316.153320 494.151184
-3.505127 43.097595 494.151184
-25.186651 0.000000 494.151184
-1131.532350 -58.867725 523.810181
-6.532350 -58.867725 523.810181
-125.425453 0.000000 523.810181
-1158.747383 -130.619751 787.711731
-33.747383 -130.619751 787.711731
-118.335899 0.000000 787.711731
-1260.500397 -240.027893 697.225281
-135.500397 -240.027893 697.225281
-61.886070 0.000000 697.225281
-1172.413742 152.768616 157.527649
-47.413742 152.768616 157.527649
-1364.766251 -302.919525 1212.280151
-239.766251 -302.919525 1212.280151
-1.231964 -25.748810 1212.280151
-17.280994 0.000000 1212.280151
-1300.094162 267.400269 259.730713
-175.094162 267.400269 259.730713
-1145.920792 104.138870 685.343750
-20.920792 104.138870 685.343750
-129.127869 0.000000 685.343750
-1341.347656 291.193542 835.503052
-216.347656 291.193542 835.503052
-20.148346 0.000000 835.503052
-1215.658478 202.114319 169.629776
-90.658478 202.114319 169.629776
-76.790596 0.000000 169.629776
-1132.852494 64.509148 835.208374
-7.852494 64.509148 835.208374
-138.139374 0.000000 835.208374
-1174.382210 155.567169 172.277878
-49.382210 155.567169 172.277878
-105.255127 0.000000 172.277878
-1273.039963 -249.241852 558.569458
-148.039963 -249.241852 558.569458
-1279.489166 -253.748840 214.641541
-154.489166 -253.748840 214.641541
-61.607002 0.000000 214.641541
-1331.303543 -285.780212 475.144836
-206.303543 -285.780212 475.144836
-27.218170 0.000000 475.144836
-1151.653913 -116.902779 1200.370361
-26.653913 -116.902779 1200.370361
-1129.209500 47.385181 572.437866
-4.209500 47.385181 572.437866
-121.780060 0.000000 572.437866
-1139.201593 -86.410889 1210.660156
-14.201593 -86.410889 1210.660156
-118.980972 0.000000 1210.660156
-1170.401566 -149.807159 590.085815
-45.401566 -149.807159 590.085815
-1129.910543 -50.999947 808.905090
-4.910543 -50.999947 808.905090
-131.449936 0.000000 808.905090
-1144.691784 -101.089508 964.235901
-19.691784 -101.089508 964.235901
-1297.597992 265.839478 471.824921
-172.597992 265.839478 471.824921
-1138.873394 -85.377930 1009.303101
-13.873394 -85.377930 1009.303101
-135.255020 0.000000 1009.303101
-1127.740611 38.147835 769.072754
-2.740611 38.147835 769.072754
-123.282585 0.000000 769.072754
-1192.791451 -178.846252 845.314270
-67.791451 -178.846252 845.314270
-88.438553 0.000000 845.314270
-1312.977081 275.299591 1108.174927
-187.977081 275.299591 1108.174927
-37.510803 0.000000 1108.174927
-1125.790690 -20.001064 1101.001465
-0.790690 -20.001064 1101.001465
-130.281479 0.000000 1101.001465
-1234.945427 -219.439346 330.574768
-109.945427 -219.439346 330.574768
-79.940208 0.000000 330.574768
-1125.120082 7.012227 133.378571
-0.120082 7.012227 133.378571
-91.455315 0.000000 133.378571
-1125.746946 19.431293 155.497940
-0.746946 19.431293 155.497940
-126.548927 0.000000 155.497940
-1190.458298 -176.228271 658.582947
-65.458298 -176.228271 658.582947
-1308.247513 272.494690 390.075378
-183.247513 272.494690 390.075378
-1321.810730 -280.491272 859.538330
-196.810730 -280.491272 859.538330
-40.536377 0.000000 859.538330
-1279.654282 253.870087 1368.957275
-154.654282 253.870087 1368.957275
-59.645195 0.000000 1368.957275
-1283.101303 -256.273193 137.186981
-158.101303 -256.273193 137.186981
-1125.838682 20.626171 1331.541626
-0.838682 20.626171 1331.541626
-134.376541 0.000000 1331.541626
-1126.083990 23.821339 1312.548462
-1.083990 23.821339 1312.548462
-155.307968 0.000000 1312.548462
-1125.049537 3.907497 1165.063110
-0.049537 3.907497 1165.063110
-1125.049537 3.907497 1165.063110
-1262.719955 241.711029 342.115082
-137.719955 241.711029 342.115082
-1160.562149 133.918427 956.924988
-35.562149 133.918427 956.924988
-1245.402740 -228.151138 1442.170532
-120.402740 -228.151138 1442.170532
-76.518021 0.000000 1442.170532
-1268.454651 245.906281 463.807861
-143.454651 245.906281 463.807861
-64.659462 0.000000 463.807861
-1200.218750 186.905533 465.521332
-75.218750 186.905533 465.521332
-1229.017754 -214.267044 1218.435547
-104.017754 -214.267044 1218.435547
-1125.539418 16.728203 815.720215
-0.539418 16.728203 815.720215
-108.841064 0.000000 815.720215
-1161.285011 -135.134323 313.448700
-36.285011 -135.134323 313.448700
-109.768654 0.000000 313.448700
-1141.940342 -94.036377 1451.219116
-16.940342 -94.036377 1451.219116
-130.966171 0.000000 1451.219116
-1129.632160 49.564529 364.021820
-4.632160 49.564529 364.021820
-127.610039 0.000000 364.021820
-1305.683121 270.894897 693.988708
-180.683121 270.894897 693.988708
-48.754547 0.000000 693.988708
-1254.931732 -235.711731 1053.352417
-129.931732 -235.711731 1053.352417
-1273.469559 -249.542053 539.451782
-148.469559 -249.542053 539.451782
-57.127243 0.000000 539.451782
-1171.797039 -151.891830 888.796997
-46.797039 -151.891830 888.796997
-101.349937 0.000000 888.796997
-1391.023376 -314.647186 507.152069
-266.023376 -314.647186 507.152069
-4.801819 -50.439301 507.152069
-25.925081 0.000000 507.152069
-1180.035347 -163.290100 941.421570
-55.035347 -163.290100 941.421570
-99.908371 0.000000 941.421570
-1200.456894 187.152985 491.981873
-75.456894 187.152985 491.981873
-1257.578873 -237.780746 350.594421
-132.578873 -237.780746 350.594421
-73.395393 0.000000 350.594421
-1125.509477 16.338223 1237.311523
-0.509477 16.338223 1237.311523
-106.286316 0.000000 1237.311523
-1383.384491 -311.366577 171.513947
-258.384491 -311.366577 171.513947
-2.529526 -36.781067 171.513947
-20.007576 0.000000 171.513947
-1383.276367 311.328461 250.268433
-258.276367 311.328461 250.268433
-1.017731 22.958527 250.268433
-15.902277 0.000000 250.268433
-1264.691940 -243.126633 1098.995117
-139.691940 -243.126633 1098.995117
-1127.260929 -34.686012 1209.664429
-2.260929 -34.686012 1209.664429
-150.485962 0.000000 1209.664429
-1192.701546 -178.745392 1378.045898
-67.701546 -178.745392 1378.045898
-1203.949158 190.781662 1276.980957
-78.949158 190.781662 1276.980957
-86.262100 0.000000 1276.980957
-1280.331100 254.339462 691.787903
-155.331100 254.339462 691.787903
-1379.719452 309.735016 1426.419189
-254.719452 309.735016 1426.419189
-1.218811 25.577576 1426.419189
-17.801243 0.000000 1426.419189
-1364.754211 -302.914001 1125.141602
-239.754211 -302.914001 1125.141602
-1.232666 -25.758087 1125.141602
-17.287479 0.000000 1125.141602
-1126.252483 25.950727 1154.821045
-1.252483 25.950727 1154.821045
-112.148697 0.000000 1154.821045
-1245.397202 -228.146576 640.551208
-120.397202 -228.146576 640.551208
-1225.485046 211.135651 1081.285645
-100.485046 211.135651 1081.285645
-75.931732 0.000000 1081.285645
-1312.725449 -275.152893 1162.431763
-187.725449 -275.152893 1162.431763
-34.425354 0.000000 1162.431763
-1315.909241 -277.023651 1387.666748
-190.909241 -277.023651 1387.666748
-1368.611526 304.702118 19.546309
-243.611526 304.702118 19.546309
-0.074570 5.824829 19.546309
-4.120551 0.000000 19.546309
-1275.675354 251.110748 1303.410889
-150.675354 251.110748 1303.410889
-1245.973633 -228.622696 970.620483
-120.973633 -228.622696 970.620483
-1349.882141 -295.622742 349.067749
-224.882141 -295.622742 349.067749
-1397.493530 317.347290 764.172363
-272.493530 317.347290 764.172363
-1317.632202 278.060364 830.382751
-192.632202 278.060364 830.382751
-1141.997747 -94.196228 1463.957031
-16.997747 -94.196228 1463.957031
-1365.030380 -303.040680 818.549988
-240.030380 -303.040680 818.549988
-1.216293 -25.544861 818.549988
-17.138205 0.000000 818.549988
-1244.871956 227.721344 108.199951
-119.871956 227.721344 108.199951
LINES 100 373
3 0 1 2
2 3 4
3 5 6 7
2 8 9
3 10 11 12
2 13 14
3 15 16 17
3 18 19 20
2 21 22
3 23 24 25
3 26 27 28
2 29 30
3 31 32 33
3 34 35 36
2 37 38
2 39 40
3 41 42 43
2 44 45
3 46 47 48
3 49 50 51
4 52 53 54 55
3 56 57 58
3 59 60 61
3 62 63 64
2 65 66
4 67 68 69 70
2 71 72
3 73 74 75
3 76 77 78
3 79 80 81
3 82 83 84
3 85 86 87
2 88 89
3 90 91 92
3 93 94 95
2 96 97
3 98 99 100
3 101 102 103
2 104 105
3 106 107 108
2 109 110
2 111 112
3 113 114 115
3 116 117 118
3 119 120 121
3 122 123 124
3 125 126 127
3 128 129 130
3 131 132 133
3 134 135 136
2 137 138
2 139 140
3 141 142 143
3 144 145 146
2 147 148
3 149 150 151
3 152 153 154
3 155 156 157
2 158 159
2 160 161
3 162 163 164
3 165 166 167
2 168 169
2 170 171
3 172 173 174
3 175 176 177
3 178 179 180
3 181 182 183
3 184 185 186
2 187 188
3 189 190 191
3 192 193 194
4 195 196 197 198
3 199 200 201
2 202 203
3 204 205 206
3 207 208 209
4 210 211 212 213
4 214 215 216 217
2 218 219
3 220 221 222
2 223 224
3 225 226 227
2 228 229
4 230 231 232 233
4 234 235 236 237
3 238 239 240
2 241 242
3 243 244 245
3 246 247 248
2 249 250
4 251 252 253 254
2 255 256
2 257 258
2 259 260
2 261 262
2 263 264
2 265 266
4 267 268 269 270
2 271 272
CELL_DATA 100
SCALARS Radiative_path_type float 1
LOOKUP_TABLE path_type
0.5
1.0
0.5
1.0
0.5
1.0
0.5
0.5
1.0
0.5
0.5
1.0
0.5
0.5
1.0
1.0
0.5
1.0
0.5
0.5
0.5
0.5
0.5
0.5
1.0
0.5
1.0
0.5
0.5
0.5
0.5
0.5
1.0
0.5
0.5
1.0
0.5
0.5
1.0
0.5
1.0
1.0
0.5
0.5
0.5
0.5
0.5
0.5
0.5
0.5
1.0
1.0
0.5
0.5
1.0
0.5
0.5
0.75
1.0
1.0
0.5
0.5
1.0
1.0
0.5
0.5
0.5
0.5
0.5
1.0
0.5
0.5
0.5
0.5
1.0
0.5
0.5
0.5
0.5
1.0
0.5
1.0
0.5
1.0
0.5
0.5
0.5
1.0
0.5
0.5
1.0
0.5
1.0
1.0
1.0
1.0
1.0
1.0
0.5
1.0
LOOKUP_TABLE path_type 5
1.0 0.0 0.0 1.0
0.0 1.0 0.0 1.0
0.0 0.0 1.0 1.0
0.0 1.0 1.0 1.0
1.0 1.0 0.0 1.0
