# vtk DataFile Version 2.0
Radiative paths
ASCII
DATASET POLYDATA
POINTS 289 float
-796.437116 773.523400 319.343170
-0.941987 -21.971729 319.343170
-1075.495129 755.043621 278.079712
-280.000000 -40.451508 278.079712
-105.174835 -215.276672 278.079712
-268.661072 0.000000 278.079712
-1075.495129 836.344738 614.206299
-280.000000 40.849609 614.206299
-239.150391 0.000000 614.206299
-1035.640331 1098.550366 1490.627686
-240.145203 303.055237 1490.627686
-853.857975 627.839764 175.233276
-58.362846 -167.655365 175.233276
-1075.495129 475.906567 175.225952
-280.000000 -319.588562 175.225952
515.495115 -1115.083677 175.225952
-907.618199 574.182842 1289.692383
-112.123070 -221.312286 1289.692383
-262.031342 -0.000015 1289.692383
-848.532726 634.825833 1334.162476
-53.037598 -160.669296 1334.162476
-834.602711 935.377209 75.143066
-39.107582 139.882080 75.143066
-1075.495129 570.704083 408.451294
-280.000000 -224.791046 408.451294
-214.548691 -290.242371 408.451294
-265.777710 0.000000 408.451294
-967.528607 530.007366 652.399719
-172.033478 -265.487762 652.399719
-262.700684 0.000000 652.399719
-1031.922466 1096.784008 638.990784
-236.427338 301.288879 638.990784
-968.559628 529.364910 1487.246826
-173.064499 -266.130219 1487.246826
-1075.495129 504.422283 15.925049
-280.000000 -291.072845 15.925049
-259.305542 -311.767303 15.925049
-270.314453 0.000000 15.925049
-1075.495129 901.983471 1309.469116
-280.000000 106.488342 1309.469116
-173.511658 0.000000 1309.469116
-1029.091656 1095.439068 1234.151611
-233.596527 299.943939 1234.151611
-797.589037 762.255879 65.804688
-2.093908 -33.239250 65.804688
-1075.495129 470.120983 917.484741
-280.000000 -325.374146 917.484741
515.495115 -1120.869261 917.484741
-797.612783 762.050190 827.549805
-2.117654 -33.444939 827.549805
-1075.495129 801.239147 1461.188354
-280.000000 5.744019 1461.188354
-274.255981 0.000000 1461.188354
-1001.812451 509.707257 245.573318
-206.317322 -285.787872 245.573318
-854.855087 964.367779 247.055756
-59.359959 168.872650 247.055756
-796.669224 770.500143 1270.006104
-1.174096 -24.994986 1270.006104
-1075.495129 535.379345 1083.255127
-280.000000 -260.115784 1083.255127
-238.040039 -302.075745 1083.255127
-275.819214 0.000000 1083.255127
-877.447514 601.782177 777.968811
-81.952385 -193.712952 777.968811
-823.763947 675.330776 131.575500
-28.268818 -120.164352 131.575500
-798.974115 838.423348 1112.872681
-3.478986 42.928219 1112.872681
-25.767965 0.000000 1112.872681
-799.678978 842.748043 177.140503
-4.183849 47.252914 177.140503
-24.289021 0.000000 177.140503
-1001.938183 509.637646 547.358459
-206.443054 -285.857483 547.358459
-1075.495129 1062.887463 322.101440
-280.000000 267.392334 322.101440
-12.607666 0.000000 322.101440
-853.070748 628.872509 897.743896
-57.575619 -166.622620 897.743896
-909.728291 572.439938 358.394440
-114.233162 -223.055191 358.394440
-1075.495129 917.606640 178.818848
-280.000000 122.111511 178.818848
-157.888489 0.000000 178.818848
-1075.495129 670.601864 407.583984
-280.000000 -124.893265 407.583984
-152.520325 -252.372940 407.583984
-269.643127 0.000015 407.583984
-797.498168 763.042992 835.208374
-2.003039 -32.452137 835.208374
-1075.495129 807.476574 707.789490
-280.000000 11.981445 707.789490
-268.018555 0.000000 707.789490
-839.196423 648.313519 1033.073730
-43.701294 -147.181610 1033.073730
-1075.495129 1106.720898 651.154053
-280.000000 311.225769 651.154053
-2.104401 33.330170 651.154053
-22.793514 0.000000 651.154053
-1075.495129 682.928143 1190.038574
-280.000000 -112.566986 1190.038574
-145.296783 -247.270203 1190.038574
-276.494415 0.000000 1190.038574
-865.380535 614.299267 103.877037
-69.885406 -181.195862 103.877037
-1075.495129 532.623760 965.174194
-280.000000 -262.871368 965.174194
-239.893478 -302.977905 965.174194
-262.592468 0.000000 965.174194
-966.884381 530.416393 912.624756
-171.389252 -265.078735 912.624756
-277.750916 0.000000 912.624756
-1075.495129 882.326245 1332.054688
-280.000000 86.831116 1332.054688
-193.168884 0.000000 1332.054688
-1075.495129 1073.015270 1320.888062
-280.000000 277.520142 1320.888062
-2.479858 0.000000 1320.888062
-886.621044 998.045910 1258.026489
-91.125916 202.550781 1258.026489
-1075.495129 503.498486 866.482727
-280.000000 -291.996643 866.482727
-259.949280 -312.047363 866.482727
-270.968079 0.000000 866.482727
-1052.012737 1106.035687 230.984329
-256.517609 310.540558 230.984329
-844.770390 950.910259 1198.999878
-49.275261 155.415131 1198.999878
-796.414745 773.814781 1388.203857
-0.919616 -21.680347 1388.203857
-835.888008 653.451077 868.625977
-40.392879 -142.044052 868.625977
-840.741795 945.063076 994.219055
-45.246666 149.567947 994.219055
-1075.495129 736.108166 345.643921
-280.000000 -59.386963 345.643921
-115.382446 -224.004517 345.643921
-267.114075 0.000000 345.643921
-985.169171 519.197247 221.472275
-189.674042 -276.297882 221.472275
-796.054465 812.482765 115.351349
-0.559336 16.987637 115.351349
-13.001296 0.000000 115.351349
-813.870581 893.318592 1366.292480
-18.375452 97.823463 1366.292480
-1075.495129 924.359020 599.319580
-280.000000 128.863892 599.319580
-151.136108 0.000000 599.319580
-927.231320 558.373028 663.117554
-131.736191 -237.122101 663.117554
-274.343811 0.000000 663.117554
-1075.495129 1091.008312 48.270264
-280.000000 295.513184 48.270264
-0.483276 15.996460 48.270264
-12.199366 0.000000 48.270264
-1075.495129 569.079479 714.035461
-280.000000 -226.415649 714.035461
-215.617035 -290.798615 714.035461
-266.944244 0.000000 714.035461
-1075.495129 587.168911 951.414307
-280.000000 -208.326218 951.414307
-203.884720 -284.441498 951.414307
-269.169067 0.000000 951.414307
-1075.495129 1039.393444 770.307922
-280.000000 243.898315 770.307922
-36.101685 0.000000 770.307922
-1075.495129 786.019177 826.640381
-280.000000 -9.475952 826.640381
-88.951660 -200.524292 826.640381
-278.847717 0.000000 826.640381
-1075.495129 1110.483349 1405.360596
-280.000000 314.988220 1405.360596
-2.664032 37.652252 1405.360596
-22.213650 0.000000 1405.360596
-1075.495129 1028.488049 272.380859
-280.000000 232.992920 272.380859
-47.007080 0.000000 272.380859
-799.436973 841.419975 1166.089233
-3.941844 45.924847 1166.089233
-27.786715 0.000000 1166.089233
-1075.495129 719.753185 673.743591
-280.000000 -75.741943 673.743591
-124.374115 -231.367828 673.743591
-263.521057 0.000000 673.743591
-1075.495129 785.315716 1035.842041
-280.000000 -10.179413 1035.842041
-89.308182 -200.871231 1035.842041
-279.532776 0.000000 1035.842041
-1075.495129 942.839245 798.704346
-280.000000 147.344116 798.704346
-132.655884 0.000000 798.704346
-795.544666 795.498350 1025.440552
-0.049537 0.003221 1025.440552
-0.052758 0.000000 1025.440552
-1075.495129 1014.841198 249.754639
-280.000000 219.346069 249.754639
-60.653931 0.000000 249.754639
-1075.495129 990.790905 544.160156
-280.000000 195.295776 544.160156
-84.704224 0.000000 544.160156
-953.333523 1051.573376 540.552307
-157.838394 256.078247 540.552307
866.014632 -210.129879 540.552307
-1075.495129 486.036877 658.077576
-280.000000 -309.458252 658.077576
-272.222595 -317.235657 658.077576
-274.025635 0.000000 658.077576
-828.728192 665.821179 809.962830
-33.233063 -129.673950 809.962830
-817.937111 687.804455 895.249695
-22.441982 -107.690674 895.249695
-799.006479 752.357380 888.796997
-3.511350 -43.137749 888.796997
-960.876248 1056.618817 861.760254
-165.381119 261.123688 861.760254
879.545152 -155.714593 861.760254
-1075.495129 487.931286 618.866150
-280.000000 -307.563843 618.866150
-270.886200 -316.677643 618.866150
-272.686066 0.000000 618.866150
-877.075520 602.144177 547.612122
-81.580391 -193.350952 547.612122
-1075.495129 985.183666 1099.141724
-280.000000 189.688538 1099.141724
-90.311462 0.000000 1099.141724
-1075.495129 1052.958447 760.955688
-280.000000 257.463318 760.955688
-22.536682 0.000000 760.955688
-960.574627 1056.420117 129.594498
-165.079498 260.924988 129.594498
879.846773 -155.913293 129.594498
-821.221426 910.512074 1313.030762
-25.726297 115.016945 1313.030762
-919.026394 564.786083 505.742493
-123.531265 -230.709045 505.742493
-262.281982 0.000000 505.742493
-1075.495129 891.697521 774.528320
-280.000000 96.202393 774.528320
-183.797607 0.000000 774.528320
-1075.495129 476.992169 1234.678223
-280.000000 -318.502960 1234.678223
515.495115 -1113.998075 1234.678223
-1075.495129 896.213848 1422.432861
-280.000000 100.718719 1422.432861
-179.281281 0.000000 1422.432861
-1075.495129 792.182537 848.771423
-280.000000 -3.312592 848.771423
-85.828049 -197.484543 848.771423
-272.845459 0.000000 848.771423
-1075.495129 609.679089 768.288940
-280.000000 -185.816040 768.288940
-189.575867 -276.240173 768.288940
-268.139069 0.000000 768.288940
-1034.631222 492.883282 1279.892212
-239.136093 -302.611847 1279.892212
-276.982300 0.000000 1279.892212
-1063.998303 1111.159558 1470.137451
-268.503174 315.664429 1470.137451
-1075.495129 1009.201489 1466.930298
-280.000000 213.706360 1466.930298
-66.293640 0.000000 1466.930298
-1075.495129 472.127270 1388.583740
-280.000000 -323.367859 1388.583740
515.495115 -1118.862974 1388.583740
-1075.495129 551.411923 534.068970
-280.000000 -244.083206 534.068970
-227.273590 -296.809631 534.068970
-264.394165 0.000000 534.068970
-1042.311749 489.341381 766.697266
-246.816620 -306.153748 766.697266
-1075.495129 584.396923 694.841614
-280.000000 -211.098206 694.841614
-205.669098 -285.429108 694.841614
-271.180115 0.000000 694.841614
-1006.429486 507.151867 1446.003784
-210.934357 -288.343262 1446.003784
-277.114227 0.000000 1446.003784
-1075.495129 563.076428 1020.949707
-280.000000 -232.418701 1020.949707
-219.564651 -292.854034 1020.949707
-271.254669 0.000000 1020.949707
-1075.495129 485.659832 690.020752
-280.000000 -309.835297 690.020752
-272.488586 -317.346741 690.020752
-274.292236 0.000000 690.020752
-1075.495129 1041.185192 500.776733
-280.000000 245.690063 500.776733
-34.309937 0.000000 500.776733
LINES 100 389
2 0 1
4 2 3 4 5
3 6 7 8
2 9 10
2 11 12
3 13 14 15
3 16 17 18
2 19 20
2 21 22
4 23 24 25 26
3 27 28 29
2 30 31
2 32 33
4 34 35 36 37
3 38 39 40
2 41 42
2 43 44
3 45 46 47
2 48 49
3 50 51 52
2 53 54
2 55 56
2 57 58
4 59 60 61 62
2 63 64
2 65 66
3 67 68 69
3 70 71 72
2 73 74
3 75 76 77
2 78 79
2 80 81
3 82 83 84
4 85 86 87 88
2 89 90
3 91 92 93
2 94 95
4 96 97 98 99
4 100 101 102 103
2 104 105
4 106 107 108 109
3 110 111 112
3 113 114 115
3 116 117 118
2 119 120
4 121 122 123 124
2 125 126
2 127 128
2 129 130
2 131 132
2 133 134
4 135 136 137 138
2 139 140
3 141 142 143
2 144 145
3 146 147 148
3 149 150 151
4 152 153 154 155
4 156 157 158 159
4 160 161 162 163
3 164 165 166
4 167 168 169 170
4 171 172 173 174
3 175 176 177
3 178 179 180
4 181 182 183 184
4 185 186 187 188
3 189 190 191
3 192 193 194
3 195 196 197
3 198 199 200
3 201 202 203
4 204 205 206 207
2 208 209
2 210 211
2 212 213
3 214 215 216
4 217 218 219 220
2 221 222
3 223 224 225
3 226 227 228
3 229 230 231
2 232 233
3 234 235 236
3 237 238 239
3 240 241 242
3 243 244 245
4 246 247 248 249
4 250 251 252 253
3 254 255 256
2 257 258
3 259 260 261
3 262 263 264
4 265 266 267 268
2 269 270
4 271 272 273 274
3 275 276 277
4 278 279 280 281
4 282 283 284 285
3 286 287 288
CELL_DATA 100
SCALARS Radiative_path_type float 1
LOOKUP_TABLE path_type
1.0
0.5
0.5
1.0
1.0
0.75
0.5
1.0
1.0
0.5
0.5
1.0
1.0
0.5
0.5
1.0
1.0
0.75
1.0
0.5
1.0
1.0
1.0
0.5
1.0
1.0
0.5
0.5
1.0
0.5
1.0
1.0
0.5
0.5
1.0
0.5
1.0
0.5
0.5
1.0
0.5
0.5
0.5
0.5
1.0
0.5
1.0
1.0
1.0
1.0
1.0
0.5
1.0
0.5
1.0
0.5
0.5
0.5
0.5
0.5
0.5
0.5
0.5
0.5
0.5
0.5
0.5
0.5
0.5
0.5
0.5
0.75
0.5
1.0
1.0
1.0
0.75
0.5
1.0
0.5
0.5
0.75
1.0
0.5
0.5
0.75
0.5
0.5
0.5
0.5
1.0
0.5
0.75
0.5
1.0
0.5
0.5
0.5
0.5
0.5
LOOKUP_TABLE path_type 5
1.0 0.0 0.0 1.0
0.0 1.0 0.0 1.0
0.0 0.0 1.0 1.0
0.0 1.0 1.0 1.0
1.0 1.0 0.0 1.0
