# vtk DataFile Version 2.0
Radiative paths
ASCII
DATASET POLYDATA
POINTS 243 float
-838.423702 649.506726 319.343170
-42.928574 -145.988403 319.343170
-1047.747189 1104.124798 349.916779
-252.252060 308.629669 349.916779
870.923569 244.587143 349.916779
-941.588543 547.635998 1204.391113
-146.093414 -247.859131 1204.391113
-796.662915 770.582321 16.109079
-1.167786 -24.912807 16.109079
-897.274365 583.181347 1444.569336
-101.779236 -212.313782 1444.569336
-960.829327 534.413738 656.086548
-165.334198 -261.081390 656.086548
-270.091949 0.000000 656.086548
-1006.587658 507.064343 692.974609
-211.092529 -288.430786 692.974609
-277.292480 0.000000 692.974609
-973.437939 526.325146 333.541138
-177.942810 -269.169983 333.541138
-269.867523 0.000000 333.541138
-799.051534 838.924572 499.139069
-3.556405 43.429443 499.139069
-26.105625 0.000000 499.139069
-1033.107617 1097.347088 681.217468
-237.612488 301.851959 681.217468
881.577579 187.665569 681.217468
-973.163372 526.496227 1449.162231
-177.668243 -268.998901 1449.162231
-944.235501 1045.258160 113.781807
-148.740372 249.763031 113.781807
-1017.198437 501.527539 947.916870
-221.703308 -293.967590 947.916870
-273.589874 0.000000 947.916870
-980.131924 1068.813732 504.681091
-184.636795 273.318604 504.681091
-945.552670 544.843319 480.808441
-150.057541 -250.651810 480.808441
-266.381592 0.000000 480.808441
-898.942089 581.726147 675.821838
-103.446960 -213.768982 675.821838
-265.788208 0.000000 675.821838
-803.944257 862.477619 1148.698242
-8.449128 66.982491 1148.698242
-795.639906 787.838632 1019.330811
-0.144777 -7.656497 1019.330811
-803.131940 859.082588 827.549805
-7.636811 63.587460 827.549805
-831.779804 930.628903 12.238473
-36.284676 135.133774 12.238473
-949.280407 1048.762570 542.427429
-153.785278 253.267441 542.427429
-876.583966 602.622540 1323.231934
-81.088837 -192.872589 1323.231934
-1029.494808 495.395611 1474.962158
-233.999680 -300.099518 1474.962158
-271.531708 0.000000 1474.962158
-797.081839 766.649288 953.994751
-1.586710 -28.845840 953.994751
-858.069287 622.725018 13.632685
-62.574158 -172.770111 13.632685
-1065.850994 1111.940899 163.483047
-270.355865 316.445770 163.483047
-829.242512 664.875378 787.711731
-33.747383 -130.619751 787.711731
-897.942791 1008.378399 298.457489
-102.447662 212.883270 298.457489
779.612597 -485.396587 298.457489
-956.644192 537.176617 445.736633
-161.149063 -258.318512 445.736633
-923.502148 1029.753201 1123.981934
-128.007019 234.258072 1123.981934
846.274292 -328.237234 1123.981934
-993.287365 514.427136 552.241699
-197.792236 -281.067993 552.241699
-277.728485 0.000000 552.241699
-980.868405 1069.250500 122.055176
-185.373276 273.755371 122.055176
-912.276272 570.335369 208.113007
-116.781143 -225.159760 208.113007
-269.295532 -0.000015 208.113007
-820.885470 909.762661 1036.664917
-25.390341 114.267532 1036.664917
-1057.689648 482.471020 287.448822
-262.194519 -313.024109 287.448822
-273.247803 0.000000 287.448822
-878.692631 990.437344 792.072754
-83.197502 194.942215 792.072754
730.260836 -582.174605 792.072754
-803.347623 860.004276 835.208374
-7.852494 64.509148 835.208374
-926.752178 1032.247021 1181.206543
-131.257050 236.751892 1181.206543
843.024261 -325.743414 1181.206543
-855.732884 625.558087 788.533691
-60.237755 -169.937042 788.533691
-921.115055 563.153561 380.630402
-125.619926 -232.341568 380.630402
-265.352478 0.000000 380.630402
-924.403362 560.583386 1034.696533
-128.908234 -234.911743 1034.696533
-270.186523 0.000000 1034.696533
-881.367932 993.052212 46.852158
-85.872803 197.557083 46.852158
727.585536 -579.559737 46.852158
-997.453442 1078.872845 1105.632812
-201.958313 283.377716 1105.632812
891.163901 17.466280 1105.632812
-878.899899 600.368786 661.398560
-83.404770 -195.126343 661.398560
-1025.247479 1093.532726 611.410278
-229.752350 298.037598 611.410278
-809.696722 709.084240 1210.660156
-14.201593 -86.410889 1210.660156
-800.772578 742.603314 1319.570801
-5.277449 -52.891815 1319.570801
-962.464367 533.334362 1352.859863
-166.969238 -262.160767 1352.859863
-272.160095 0.000000 1352.859863
-944.290310 545.725506 1459.465698
-148.795181 -249.769623 1459.465698
-962.150479 1057.458142 1055.370850
-166.655350 261.963013 1055.370850
-900.730839 1010.861004 440.485779
-105.235710 215.365875 440.485779
776.824549 -482.913982 440.485779
-1046.230145 487.543896 614.282166
-250.735016 -307.951233 614.282166
-845.772591 952.335079 419.904907
-50.277462 156.839951 419.904907
-909.557202 1018.410626 774.958130
-114.062073 222.915497 774.958130
801.031871 -431.475844 774.958130
-863.286579 616.648876 845.314270
-67.791451 -178.846252 845.314270
-808.087418 876.824940 580.886108
-12.592289 81.329811 580.886108
-858.183674 968.403927 1495.960693
-62.688545 172.908798 1495.960693
-812.924076 700.098324 1155.639404
-17.428947 -95.396805 1155.639404
-972.086392 527.167309 221.472275
-176.591263 -268.327820 221.472275
-905.440556 576.055783 330.574768
-109.945427 -219.439346 330.574768
-276.592896 0.000000 330.574768
-795.615210 802.507356 133.378571
-0.120082 7.012227 133.378571
-6.132358 0.000000 133.378571
-796.242075 814.926422 155.497940
-0.746946 19.431293 155.497940
-14.978672 0.000000 155.497940
-860.953427 619.266857 658.582947
-65.458298 -176.228271 658.582947
-978.742642 1067.989819 390.075378
-183.247513 272.494690 390.075378
896.307350 -44.027599 390.075378
-992.305859 515.003857 859.538330
-196.810730 -280.491272 859.538330
-276.582947 0.000000 859.538330
-950.149410 1049.365216 1368.957275
-154.654282 253.870087 1368.957275
-992.387051 1076.025524 1342.207275
-196.891922 280.530396 1342.207275
896.230292 14.618960 1342.207275
-828.668644 925.059567 101.431000
-33.173515 129.564438 101.431000
-1036.930905 491.809735 859.007446
-241.435776 -303.685394 859.007446
-976.505429 1066.594616 433.351044
-181.010300 271.099487 433.351044
882.484100 -95.785568 433.351044
-795.855431 808.774365 780.364380
-0.360302 13.279236 780.364380
-11.745905 0.000000 780.364380
-846.128872 952.841595 1085.719116
-50.633743 157.346466 1085.719116
-840.657265 646.057705 1444.190063
-45.162136 -149.437424 1444.190063
-803.599270 729.910610 334.041260
-8.104141 -65.584518 334.041260
-811.468010 704.152447 914.815369
-15.972881 -91.342682 914.815369
-938.949780 1041.401409 463.807861
-143.454651 245.906281 463.807861
-845.205010 951.528149 788.494812
-49.709881 156.033020 788.494812
-805.919428 721.325100 1263.983154
-10.424299 -74.170029 1263.983154
-845.410572 639.169872 635.841248
-49.915443 -156.325256 635.841248
-902.108349 578.963360 851.076904
-106.613220 -216.531769 851.076904
-881.777439 597.568524 750.467102
-86.282310 -197.926605 750.467102
-273.718079 0.000000 750.467102
-1029.639721 1095.699475 644.781372
-234.144592 300.204346 644.781372
885.045475 186.017955 644.781372
-1017.770184 1089.771008 850.366882
-222.275055 294.275879 850.366882
890.620002 129.686666 850.366882
-800.127289 845.059658 364.021820
-4.632160 49.564529 364.021820
-796.260955 815.172341 565.556885
-0.765826 19.677212 565.556885
-15.177665 0.000000 565.556885
-816.392046 899.574764 1348.120605
-20.896917 104.079636 1348.120605
-796.600258 819.591816 702.589966
-1.105129 24.096687 702.589966
-18.753847 0.000000 702.589966
-1062.351086 480.500286 283.762238
-266.855957 -314.994843 283.762238
-268.646271 0.000000 283.762238
-806.695671 872.427212 798.901062
-11.200542 76.932083 798.901062
-929.494518 1034.351284 361.178894
-133.999390 238.856155 361.178894
840.281921 -323.639151 361.178894
-803.583714 861.013172 547.988525
-8.088585 65.518044 547.988525
-796.024999 778.891285 439.361328
-0.529870 -16.603844 439.361328
-870.952023 982.648113 491.981873
-75.456894 187.152985 491.981873
-928.074002 557.714382 350.594421
-132.578873 -237.780746 350.594421
-275.582581 0.000000 350.594421
-796.004606 811.833351 1237.311523
-0.509477 16.338223 1237.311523
-12.475799 0.000000 1237.311523
-1053.879620 484.128552 171.513947
-258.384491 -311.366577 171.513947
-269.379272 0.000000 171.513947
-1053.771496 1106.823590 250.268433
-258.276367 311.328461 250.268433
-845.822476 638.584255 295.373535
-50.327347 -156.910873 295.373535
-917.991337 1025.333172 1166.892822
-122.496208 229.838043 1166.892822
-1060.984051 1109.888378 433.593658
-265.488922 314.393250 433.593658
859.419011 300.001607 433.593658
LINES 100 343
2 0 1
3 2 3 4
2 5 6
2 7 8
2 9 10
3 11 12 13
3 14 15 16
3 17 18 19
3 20 21 22
3 23 24 25
2 26 27
2 28 29
3 30 31 32
2 33 34
3 35 36 37
3 38 39 40
2 41 42
2 43 44
2 45 46
2 47 48
2 49 50
2 51 52
3 53 54 55
2 56 57
2 58 59
2 60 61
2 62 63
3 64 65 66
2 67 68
3 69 70 71
3 72 73 74
2 75 76
3 77 78 79
2 80 81
3 82 83 84
3 85 86 87
2 88 89
3 90 91 92
2 93 94
3 95 96 97
3 98 99 100
3 101 102 103
3 104 105 106
2 107 108
2 109 110
2 111 112
2 113 114
3 115 116 117
2 118 119
2 120 121
3 122 123 124
2 125 126
2 127 128
3 129 130 131
2 132 133
2 134 135
2 136 137
2 138 139
2 140 141
3 142 143 144
3 145 146 147
3 148 149 150
2 151 152
3 153 154 155
3 156 157 158
2 159 160
3 161 162 163
2 164 165
2 166 167
3 168 169 170
3 171 172 173
2 174 175
2 176 177
2 178 179
2 180 181
2 182 183
2 184 185
2 186 187
2 188 189
2 190 191
3 192 193 194
3 195 196 197
3 198 199 200
2 201 202
3 203 204 205
2 206 207
3 208 209 210
3 211 212 213
2 214 215
3 216 217 218
2 219 220
2 221 222
2 223 224
3 225 226 227
3 228 229 230
3 231 232 233
2 234 235
2 236 237
2 238 239
3 240 241 242
CELL_DATA 100
SCALARS Radiative_path_type float 1
LOOKUP_TABLE path_type
1.0
0.75
1.0
1.0
1.0
0.75
0.75
0.75
0.75
0.75
1.0
1.0
0.75
1.0
0.75
0.75
1.0
1.0
1.0
1.0
1.0
1.0
0.75
1.0
1.0
1.0
1.0
0.75
1.0
0.75
0.75
1.0
0.75
1.0
0.75
0.75
1.0
0.75
1.0
0.75
0.75
0.75
0.75
1.0
1.0
1.0
1.0
0.75
1.0
1.0
0.75
1.0
1.0
0.75
1.0
1.0
1.0
1.0
1.0
0.75
0.75
0.75
1.0
0.75
0.75
1.0
0.75
1.0
1.0
0.75
0.75
1.0
1.0
1.0
1.0
1.0
1.0
1.0
1.0
1.0
0.75
0.75
0.75
1.0
0.75
1.0
0.75
0.75
1.0
0.75
1.0
1.0
1.0
0.75
0.75
0.75
1.0
1.0
1.0
0.75
LOOKUP_TABLE path_type 5
1.0 0.0 0.0 1.0
0.0 1.0 0.0 1.0
0.0 0.0 1.0 1.0
0.0 1.0 1.0 1.0
1.0 1.0 0.0 1.0
