# vtk DataFile Version 2.0
Radiative paths
ASCII
DATASET POLYDATA
POINTS 232 float
-838.423702 -941.483532 319.343170
-42.928574 -145.988403 319.343170
-1047.747189 -486.865460 349.916779
-252.252060 308.629669 349.916779
-941.588543 -1043.354260 1204.391113
-146.093414 -247.859131 1204.391113
847.685813 279.424303 1204.391113
-796.662915 -820.407936 16.109079
-1.167786 -24.912807 16.109079
-19.414242 0.000000 16.109079
-891.231182 -588.639675 900.033630
-95.736053 206.855453 900.033630
-928.656353 -557.282116 674.266663
-133.161224 238.213013 674.266663
-1006.587658 -1083.925915 692.974609
-211.092529 -288.430786 692.974609
-797.074033 -824.273354 88.458809
-1.578904 -28.778225 88.458809
-19.442514 0.000000 88.458809
-901.378155 -579.552853 955.571960
-105.883026 215.942276 955.571960
-276.832947 0.000000 955.571960
-893.872936 -586.235851 198.463882
-98.377808 209.259277 198.463882
-1020.457821 -1091.159802 946.384888
-224.962692 -295.664673 946.384888
-886.566403 -998.006954 1455.608887
-91.071274 -202.511826 1455.608887
-820.826296 -681.359600 1350.243042
-25.331167 114.135529 1350.243042
-956.317379 -1053.597882 189.721176
-160.822250 -258.102753 189.721176
-978.508526 -523.143170 1291.433228
-183.013397 272.351959 1291.433228
-276.969574 0.000000 1291.433228
-829.922493 -663.624905 485.795563
-34.427364 131.870224 485.795563
-819.650170 -683.983166 341.999634
-24.155041 111.511963 341.999634
-810.568959 -884.334576 1386.943115
-15.073831 -88.839447 1386.943115
-803.944257 -728.512638 1148.698242
-8.449128 66.982491 1148.698242
-795.639906 -803.151625 1019.330811
-0.144777 -7.656497 1019.330811
-6.709449 0.000000 1019.330811
-797.201620 -825.378525 1492.563232
-1.706491 -29.883396 1492.563232
-20.256119 0.000000 1492.563232
-842.498928 -643.309323 1334.744141
-47.003799 152.185806 1334.744141
-967.275677 -1060.825299 571.751831
-171.780548 -265.330170 571.751831
892.847286 98.252784 571.751831
-900.590771 -580.253964 1339.770752
-105.095642 215.241165 1339.770752
-1065.157543 -479.341809 494.151184
-269.662415 316.153320 494.151184
-273.707153 0.000000 494.151184
-802.027479 -854.362854 523.810181
-6.532350 -58.867725 523.810181
-806.150625 -720.483784 1391.469971
-10.655497 75.011345 1391.469971
-828.262505 -666.677578 1002.961609
-32.767376 128.817551 1002.961609
-801.104875 -740.889900 1132.824585
-5.609746 54.605228 1132.824585
-908.380779 -1017.437298 1460.823730
-112.885651 -221.942169 1460.823730
818.548243 408.974613 1460.823730
-842.908871 -642.726513 157.527649
-47.413742 152.768616 157.527649
-1035.261379 -1098.414654 1212.280151
-239.766251 -302.919525 1212.280151
-934.012341 -553.191479 472.105835
-138.517212 242.303650 472.105835
-263.221375 0.000000 472.105835
-816.415920 -691.356259 685.343750
-20.920792 104.138870 685.343750
-841.281513 -645.093746 517.169617
-45.786385 150.401382 517.169617
-796.713934 -821.072457 705.140076
-1.218805 -25.577328 705.140076
-19.951963 0.000000 705.140076
-872.231243 -983.977307 1410.926147
-76.736115 -188.482178 1410.926147
-796.255585 -775.887865 86.756767
-0.760456 19.607264 86.756767
-796.337425 -816.168377 456.288361
-0.842297 -20.673248 456.288361
-15.983645 0.000000 456.288361
-811.867735 -703.039486 321.595886
-16.372606 92.455643 321.595886
-943.535092 -1044.736981 558.569458
-148.039963 -249.241852 558.569458
872.422885 224.340874 558.569458
-949.984295 -1049.243969 214.641541
-154.489166 -253.748840 214.641541
-856.783241 -624.284451 824.933594
-61.288113 171.210678 824.933594
-881.367932 -597.938046 46.852158
-85.872803 197.557083 46.852158
-997.453442 -512.117413 1105.632812
-201.958313 283.377716 1105.632812
-878.899899 -990.621472 661.398560
-83.404770 -195.126343 661.398560
733.443747 578.426224 661.398560
-1025.247479 -497.457531 611.410278
-229.752350 298.037598 611.410278
-273.829987 0.000000 611.410278
-958.122158 -536.185620 515.613342
-162.627029 259.309509 515.613342
-840.896694 -945.302288 590.085815
-45.401566 -149.807159 590.085815
-800.405672 -846.495075 808.905090
-4.910543 -50.999947 808.905090
-944.290310 -1045.264752 1459.465698
-148.795181 -249.769623 1459.465698
871.667667 223.813103 1459.465698
-962.150479 -533.532116 1055.370850
-166.655350 261.963013 1055.370850
-271.156708 0.000000 1055.370850
-809.368523 -880.873059 1009.303101
-13.873394 -85.377930 1009.303101
-798.345634 -756.635811 960.531494
-2.850506 38.859318 960.531494
-800.250241 -845.693634 323.854034
-4.755113 -50.198505 323.854034
-1032.750683 -493.812725 671.175110
-237.255554 301.682404 671.175110
-795.544666 -792.036179 740.728271
-0.049537 3.458950 740.728271
-983.472210 -520.195538 1108.174927
-187.977081 275.299591 1108.174927
-268.694092 0.000000 1108.174927
-796.285819 -815.496193 1101.001465
-0.790690 -20.001064 1101.001465
-15.439723 0.000000 1101.001465
-905.440556 -1014.934475 330.574768
-109.945427 -219.439346 330.574768
785.985675 460.952055 330.574768
-878.134083 -601.098858 1270.855469
-82.638954 194.396271 1270.855469
-1061.024059 -481.085003 834.514343
-265.528931 314.410126 834.514343
-843.304096 -948.825634 969.297424
-47.808968 -153.330505 969.297424
-829.476235 -664.445568 887.090576
-33.981106 131.049561 887.090576
-860.953427 -971.723400 658.582947
-65.458298 -176.228271 658.582947
-978.742642 -523.000439 390.075378
-183.247513 272.494690 390.075378
-992.305859 -1075.986401 859.538330
-196.810730 -280.491272 859.538330
-905.803021 -1015.250759 412.670715
-110.307892 -219.755630 412.670715
785.623210 460.635771 412.670715
-1058.022534 -1108.664074 1189.410278
-262.527405 -313.168945 1189.410278
861.771868 -273.468438 1189.410278
-1058.523907 -482.139385 406.699341
-263.028778 313.355743 406.699341
-953.434277 -539.346997 846.114563
-157.939148 256.148132 846.114563
-842.285248 -947.377133 342.443512
-46.790119 -151.882004 342.443512
-796.579118 -771.673790 1312.548462
-1.083990 23.821339 1312.548462
-880.239201 -991.924816 1063.344971
-84.744072 -196.429688 1063.344971
732.104445 577.122879 1063.344971
-1024.141979 -498.013684 305.488495
-228.646851 297.481445 305.488495
-1046.946316 -487.224255 485.957977
-251.451187 308.270874 485.957977
-269.028534 0.000000 485.957977
-915.897869 -1023.646267 1442.170532
-120.402740 -228.151138 1442.170532
-844.453427 -640.530621 1097.332153
-48.958298 154.964508 1097.332153
-806.874971 -717.996487 466.226929
-11.379842 77.498642 466.226929
-796.571510 -819.217364 139.262177
-1.076381 -23.722235 139.262177
-18.450846 0.000000 139.262177
-845.410572 -951.820385 635.841248
-49.915443 -156.325256 635.841248
-902.108349 -1012.026898 851.076904
-106.613220 -216.531769 851.076904
789.317882 463.859632 851.076904
-881.777439 -993.421734 750.467102
-86.282310 -197.926605 750.467102
-800.155187 -845.203507 659.478394
-4.660058 -49.708378 659.478394
-812.435471 -889.531506 1451.219116
-16.940342 -94.036377 1451.219116
-795.796089 -807.226221 507.484039
-0.300960 -11.731092 507.484039
-10.359186 0.000000 507.484039
-796.260955 -775.817917 565.556885
-0.765826 19.677212 565.556885
-900.314663 -1010.461773 717.588257
-104.819534 -214.966644 717.588257
-798.383183 -756.392712 203.582886
-2.888054 39.102417 203.582886
-943.600750 -1044.782849 632.263245
-148.105621 -249.287720 632.263245
872.357227 224.295006 632.263245
-796.566409 -771.839329 1210.185547
-1.071280 23.655800 1210.185547
-842.292168 -947.386959 888.796997
-46.797039 -151.891830 888.796997
-806.695671 -718.563046 798.901062
-11.200542 76.932083 798.901062
-929.494518 -556.638973 361.178894
-133.999390 238.856155 361.178894
-803.583714 -729.977085 547.988525
-8.088585 65.518044 547.988525
-796.024999 -812.098973 439.361328
-0.529870 -16.603844 439.361328
-12.690735 0.000000 439.361328
-856.017292 -625.213207 420.051910
-60.522163 170.281921 420.051910
-1048.276638 -1104.385143 1039.722778
-252.781509 -308.890015 1039.722778
869.074472 -224.841034 1039.722778
-796.004606 -779.156906 1237.311523
-0.509477 16.338223 1237.311523
-954.922802 -538.314739 103.607071
-159.427673 257.180389 103.607071
-276.533936 0.000000 103.607071
LINES 100 332
2 0 1
2 2 3
3 4 5 6
3 7 8 9
2 10 11
2 12 13
2 14 15
3 16 17 18
3 19 20 21
2 22 23
2 24 25
2 26 27
2 28 29
2 30 31
3 32 33 34
2 35 36
2 37 38
2 39 40
2 41 42
3 43 44 45
3 46 47 48
2 49 50
3 51 52 53
2 54 55
3 56 57 58
2 59 60
2 61 62
2 63 64
2 65 66
3 67 68 69
2 70 71
2 72 73
3 74 75 76
2 77 78
2 79 80
3 81 82 83
2 84 85
2 86 87
3 88 89 90
2 91 92
3 93 94 95
2 96 97
2 98 99
2 100 101
2 102 103
3 104 105 106
3 107 108 109
2 110 111
2 112 113
2 114 115
3 116 117 118
3 119 120 121
2 122 123
2 124 125
2 126 127
2 128 129
2 130 131
3 132 133 134
3 135 136 137
3 138 139 140
2 141 142
2 143 144
2 145 146
2 147 148
2 149 150
2 151 152
2 153 154
3 155 156 157
3 158 159 160
2 161 162
2 163 164
2 165 166
2 167 168
3 169 170 171
2 172 173
3 174 175 176
2 177 178
2 179 180
2 181 182
3 183 184 185
2 186 187
3 188 189 190
2 191 192
2 193 194
2 195 196
3 197 198 199
2 200 201
2 202 203
2 204 205
3 206 207 208
2 209 210
2 211 212
2 213 214
2 215 216
2 217 218
3 219 220 221
2 222 223
3 224 225 226
2 227 228
3 229 230 231
CELL_DATA 100
SCALARS Radiative_path_type float 1
LOOKUP_TABLE path_type
1.0
1.0
0.75
0.5
1.0
1.0
1.0
0.5
0.5
1.0
1.0
1.0
1.0
1.0
0.5
1.0
1.0
1.0
1.0
0.5
0.5
1.0
0.75
1.0
0.5
1.0
1.0
1.0
1.0
0.75
1.0
1.0
0.5
1.0
1.0
0.5
1.0
1.0
0.5
1.0
0.75
1.0
1.0
1.0
1.0
0.75
0.5
1.0
1.0
1.0
0.75
0.5
1.0
1.0
1.0
1.0
1.0
0.5
0.5
0.75
1.0
1.0
1.0
1.0
1.0
1.0
1.0
0.75
0.75
1.0
1.0
1.0
1.0
0.75
1.0
0.5
1.0
1.0
1.0
0.5
1.0
0.75
1.0
1.0
1.0
0.5
1.0
1.0
1.0
0.75
1.0
1.0
1.0
1.0
1.0
0.5
1.0
0.75
1.0
0.5
LOOKUP_TABLE path_type 5
1.0 0.0 0.0 1.0
0.0 1.0 0.0 1.0
0.0 0.0 1.0 1.0
0.0 1.0 1.0 1.0
1.0 1.0 0.0 1.0
