# vtk DataFile Version 2.0
Radiative paths
ASCII
DATASET POLYDATA
POINTS 284 float
-796.437116 -817.466858 319.343170
-0.941987 -21.971729 319.343170
-17.034359 0.000000 319.343170
-1075.495129 -1091.699902 299.449463
-280.000000 -296.204773 299.449463
-0.540771 -16.745544 299.449463
-12.805503 0.000000 299.449463
-821.933933 -679.026798 1269.198975
-26.438805 116.468330 1269.198975
-1035.640331 -492.439892 1490.627686
-240.145203 303.055237 1490.627686
-271.064697 0.000000 1490.627686
-1006.328594 -507.235302 1217.700439
-210.833466 288.259827 1217.700439
-267.016113 0.000000 1217.700439
-1075.495129 -1059.829418 1084.973633
-280.000000 -264.334290 1084.973633
-15.665710 0.000000 1084.973633
-1075.495129 -777.743450 527.904846
-280.000000 17.751678 527.904846
-93.233231 204.518448 527.904846
-271.487793 0.000000 527.904846
-1075.495129 -1020.286175 408.451294
-280.000000 -224.791046 408.451294
-55.208954 0.000000 408.451294
-967.528607 -1060.982891 652.399719
-172.033478 -265.487762 652.399719
-1075.495129 -929.183163 650.170898
-280.000000 -133.688034 650.170898
-146.311966 0.000000 650.170898
-968.559628 -1061.625347 1487.246826
-173.064499 -266.130219 1487.246826
891.563335 97.452735 1487.246826
-1075.495129 -1086.567974 15.925049
-280.000000 -291.072845 15.925049
-0.286743 -11.359589 15.925049
-10.026369 0.000000 15.925049
-1075.495129 -689.006787 1309.469116
-280.000000 106.488342 1309.469116
-141.793854 244.694489 1309.469116
-267.728516 0.000000 1309.469116
-1029.091656 -495.551190 1234.151611
-233.596527 299.943939 1234.151611
-264.198578 0.000000 1234.151611
-1075.495129 -1009.061962 522.666138
-280.000000 -213.566833 522.666138
-66.433167 0.000000 522.666138
-1075.495129 -684.839672 30.253174
-280.000000 110.655457 30.253174
-144.203064 246.452393 30.253174
-271.042450 0.000000 30.253174
-1075.495129 -938.556210 743.089233
-280.000000 -143.061081 743.089233
-136.938919 0.000000 743.089233
-854.855087 -626.622479 247.055756
-59.359959 168.872650 247.055756
-796.669224 -820.490114 1270.006104
-1.174096 -24.994986 1270.006104
-19.480740 0.000000 1270.006104
-869.624424 -609.721615 1489.251221
-74.129295 185.773514 1489.251221
-877.447514 -989.208080 777.968811
-81.952385 -193.712952 777.968811
-823.763947 -915.659481 131.575500
-28.268818 -120.164352 131.575500
-798.974115 -752.566910 1112.872681
-3.478986 42.928219 1112.872681
-844.904091 -951.100323 107.319298
-49.408962 -155.605194 107.319298
-1075.495129 -974.067883 399.578857
-280.000000 -178.572754 399.578857
-101.427246 0.000000 399.578857
-898.071148 -1008.504147 1212.280151
-102.576019 -213.009018 1212.280151
-1075.495129 -1089.166638 702.476562
-280.000000 -293.671509 702.476562
-0.390320 -14.061829 702.476562
-12.446826 0.000000 702.476562
-1066.108410 -478.940808 439.855469
-270.613281 316.554321 439.855469
-274.663147 0.000000 439.855469
-1075.495129 -673.383618 178.818848
-280.000000 122.111511 178.818848
-150.867523 251.243988 178.818848
-265.270691 0.000000 178.818848
-1075.495129 -920.388394 407.583984
-280.000000 -124.893265 407.583984
-155.106735 0.000000 407.583984
-797.498168 -827.947266 835.208374
-2.003039 -32.452137 835.208374
-22.147169 0.000000 835.208374
-1075.495129 -733.662274 1289.560547
-280.000000 61.832855 1289.560547
-116.689987 225.142868 1289.560547
-277.691528 0.000000 1289.560547
-810.987736 -705.489674 728.273193
-15.492607 90.005455 728.273193
-807.698401 -715.394558 1169.838135
-12.203272 80.100571 1169.838135
-1075.495129 -908.062115 1190.038574
-280.000000 -112.566986 1190.038574
-167.433014 0.000000 1190.038574
-865.380535 -976.690991 103.877037
-69.885406 -181.195862 103.877037
-1075.495129 -1058.366497 965.174194
-280.000000 -262.871368 965.174194
-17.128632 0.000000 965.174194
-966.884381 -1060.573864 912.624756
-171.389252 -265.078735 912.624756
-1075.495129 -787.150036 1417.654297
-280.000000 8.345093 1417.654297
-88.368759 199.976334 1417.654297
-262.664490 0.000000 1417.654297
-962.464367 -1057.655895 1352.859863
-166.969238 -262.160767 1352.859863
-795.767832 -784.501229 1191.389893
-0.272703 10.993900 1191.389893
-796.337505 -816.169407 728.551514
-0.842376 -20.674278 728.551514
-15.984479 0.000000 728.551514
-1075.495129 -833.581677 544.454590
-280.000000 -38.086548 544.454590
-241.913452 0.000000 544.454590
-801.677833 -852.868695 960.531494
-6.182704 -57.373566 960.531494
-1075.495129 -683.908154 1250.131470
-280.000000 111.586975 1250.131470
-144.741623 246.845352 1250.131470
-271.783264 0.000000 1250.131470
-835.888008 -937.539181 868.625977
-40.392879 -142.044052 868.625977
-840.741795 -645.927181 994.219055
-45.246666 149.567947 994.219055
-1075.495129 -854.882092 345.643921
-280.000000 -59.386963 345.643921
-220.613037 0.000000 345.643921
-985.169171 -1071.793011 221.472275
-189.674042 -276.297882 221.472275
892.414771 31.450097 221.472275
-796.054465 -778.507492 115.351349
-0.559336 16.987637 115.351349
-1075.495129 -979.067990 324.210571
-280.000000 -183.572861 324.210571
-96.427139 0.000000 324.210571
-1075.495129 -666.631237 599.319580
-280.000000 128.863892 599.319580
-154.854767 254.009125 599.319580
-270.517029 0.000000 599.319580
-927.231320 -1032.617230 663.117554
-131.736191 -237.122101 663.117554
-1075.495129 -814.514324 881.588623
-280.000000 -19.019196 881.588623
-260.980804 0.000000 881.588623
-1019.844433 -1090.840435 859.538330
-224.349304 -295.345306 859.538330
883.525797 -99.800551 859.538330
-796.028627 -778.844032 246.394867
-0.533498 16.651096 246.394867
-928.783383 -1033.830364 1189.410278
-133.288254 -238.335236 1189.410278
830.791074 341.471718 1189.410278
-1075.495129 -1001.188305 482.817749
-280.000000 -205.693176 482.817749
-74.306824 0.000000 482.817749
-901.950245 -1011.888928 859.007446
-106.455116 -216.393799 859.007446
-1075.495129 -804.971081 826.640381
-280.000000 -9.475952 826.640381
-270.524048 0.000000 826.640381
-1075.495129 -480.506909 1405.360596
-280.000000 314.988220 1405.360596
515.495115 1110.483335 1405.360596
-1075.495129 -622.436199 1302.636353
-280.000000 173.058929 1302.636353
-181.594299 271.464630 1302.636353
-275.244385 0.000000 1302.636353
-1027.343762 -1094.542492 1038.380859
-231.848633 -299.047363 1038.380859
-800.024937 -844.531906 262.844360
-4.529808 -49.036777 262.844360
-25.393978 0.000000 262.844360
-971.741924 -527.374157 466.226929
-176.246796 268.120972 466.226929
-268.743347 0.000000 466.226929
-1075.495129 -724.734204 1487.114868
-280.000000 70.760925 1487.114868
-121.625336 229.135590 1487.114868
-269.174744 0.000000 1487.114868
-811.280751 -886.316433 1322.509521
-15.785623 -90.821304 1322.509521
-942.732311 -546.828900 1053.307495
-147.237183 248.666229 1053.307495
-275.215912 0.000000 1053.307495
-1075.495129 -510.886242 804.759949
-280.000000 284.608887 804.759949
-254.826096 309.782776 804.759949
-272.489655 0.000000 804.759949
-1075.495129 -872.192120 941.511963
-280.000000 -76.696991 941.511963
-203.303009 0.000000 941.511963
-824.865933 -673.105145 565.556885
-29.370804 122.389984 565.556885
-797.450276 -763.457836 717.588257
-1.955148 32.037292 717.588257
-842.526940 -643.269512 1058.928345
-47.031811 152.225616 1058.928345
-828.728192 -925.169079 809.962830
-33.233063 -129.673950 809.962830
-817.937111 -903.185803 895.249695
-22.441982 -107.690674 895.249695
-799.006479 -838.632878 888.796997
-3.511350 -43.137749 888.796997
-25.909121 0.000000 888.796997
-949.543621 -1048.936001 1105.627930
-154.048492 -253.440872 1105.627930
-923.487072 -1029.690685 144.895172
-127.991943 -234.195557 144.895172
-877.075520 -988.846081 547.612122
-81.580391 -193.350952 547.612122
735.268126 580.201615 547.612122
-1075.495129 -605.806591 1099.141724
-280.000000 189.688538 1099.141724
-192.001953 277.686584 1099.141724
-273.418884 0.000000 1099.141724
-1075.495129 -538.031811 760.955688
-280.000000 257.463318 760.955688
-236.255890 301.207428 760.955688
-266.986847 0.000000 760.955688
-960.574627 -534.570141 129.594498
-165.079498 260.924988 129.594498
-821.221426 -680.478184 1313.030762
-25.726297 115.016945 1313.030762
-919.026394 -1026.204174 505.742493
-123.531265 -230.709045 505.742493
-1075.495129 -768.167675 261.212646
-280.000000 27.327454 261.212646
-98.214005 209.113449 261.212646
-263.758209 0.000000 261.212646
-845.166676 -951.473644 1032.042236
-49.671547 -155.978516 1032.042236
-1075.495129 -723.546459 1128.348877
-280.000000 71.948669 1128.348877
-122.282761 229.665909 1128.348877
-270.173676 0.000000 1128.348877
-814.370629 -894.559284 916.974304
-18.875500 -99.064156 916.974304
-1075.495129 -660.022106 1008.603638
-280.000000 135.473022 1008.603638
-158.757431 256.715576 1008.603638
-275.652039 0.000000 1008.603638
-1075.495129 -679.422192 774.606934
-280.000000 116.072937 774.606934
-147.335190 248.737747 774.606934
-275.350769 0.000000 774.606934
-987.525967 -517.791424 1149.073486
-192.030838 277.703705 1149.073486
-273.452759 0.000000 1149.073486
-891.776196 -588.130779 954.279541
-96.281067 207.364349 954.279541
-277.016357 0.000000 954.279541
-1075.495129 -682.293499 1046.192871
-280.000000 113.201630 1046.192871
-145.675140 247.526489 1046.192871
-273.067322 0.000000 1046.192871
-1075.495129 -1039.578335 534.068970
-280.000000 -244.083206 534.068970
-35.916794 0.000000 534.068970
-1042.311749 -1101.648876 766.697266
-246.816620 -306.153748 766.697266
875.039362 -222.104767 766.697266
-1075.495129 -1006.593334 694.841614
-280.000000 -211.098206 694.841614
-68.901794 0.000000 694.841614
-1006.429486 -1083.838391 1446.003784
-210.934357 -288.343262 1446.003784
-1075.495129 -958.399197 775.329712
-280.000000 -162.904068 775.329712
-117.095932 0.000000 775.329712
-1075.495129 -636.233593 1127.820801
-280.000000 159.261536 1127.820801
-173.105042 266.156494 1127.820801
-264.923889 0.000000 1127.820801
-1021.221020 -1091.547741 1121.459473
-225.725891 -296.052612 1121.459473
LINES 100 384
3 0 1 2
4 3 4 5 6
2 7 8
3 9 10 11
3 12 13 14
3 15 16 17
4 18 19 20 21
3 22 23 24
2 25 26
3 27 28 29
3 30 31 32
4 33 34 35 36
4 37 38 39 40
3 41 42 43
3 44 45 46
4 47 48 49 50
3 51 52 53
2 54 55
3 56 57 58
2 59 60
2 61 62
2 63 64
2 65 66
2 67 68
3 69 70 71
2 72 73
4 74 75 76 77
3 78 79 80
4 81 82 83 84
3 85 86 87
3 88 89 90
4 91 92 93 94
2 95 96
2 97 98
3 99 100 101
2 102 103
3 104 105 106
2 107 108
4 109 110 111 112
2 113 114
2 115 116
3 117 118 119
3 120 121 122
2 123 124
4 125 126 127 128
2 129 130
2 131 132
3 133 134 135
3 136 137 138
2 139 140
3 141 142 143
4 144 145 146 147
2 148 149
3 150 151 152
3 153 154 155
2 156 157
3 158 159 160
3 161 162 163
2 164 165
3 166 167 168
3 169 170 171
4 172 173 174 175
2 176 177
3 178 179 180
3 181 182 183
4 184 185 186 187
2 188 189
3 190 191 192
4 193 194 195 196
3 197 198 199
2 200 201
2 202 203
2 204 205
2 206 207
2 208 209
3 210 211 212
2 213 214
2 215 216
3 217 218 219
4 220 221 222 223
4 224 225 226 227
2 228 229
2 230 231
2 232 233
4 234 235 236 237
2 238 239
4 240 241 242 243
2 244 245
4 246 247 248 249
4 250 251 252 253
3 254 255 256
3 257 258 259
4 260 261 262 263
3 264 265 266
3 267 268 269
3 270 271 272
2 273 274
3 275 276 277
4 278 279 280 281
2 282 283
CELL_DATA 100
SCALARS Radiative_path_type float 1
LOOKUP_TABLE path_type
0.5
0.5
1.0
0.5
0.5
0.5
0.5
0.5
1.0
0.5
0.75
0.5
0.5
0.5
0.5
0.5
0.5
1.0
0.5
1.0
1.0
1.0
1.0
1.0
0.5
1.0
0.5
0.5
0.5
0.5
0.5
0.5
1.0
1.0
0.5
1.0
0.5
1.0
0.5
1.0
1.0
0.5
0.5
1.0
0.5
1.0
1.0
0.5
0.75
1.0
0.5
0.5
1.0
0.5
0.75
1.0
0.75
0.5
1.0
0.5
0.75
0.5
1.0
0.5
0.5
0.5
1.0
0.5
0.5
0.5
1.0
1.0
1.0
1.0
1.0
0.5
1.0
1.0
0.75
0.5
0.5
1.0
1.0
1.0
0.5
1.0
0.5
1.0
0.5
0.5
0.5
0.5
0.5
0.5
0.75
0.5
1.0
0.5
0.5
1.0
LOOKUP_TABLE path_type 5
1.0 0.0 0.0 1.0
0.0 1.0 0.0 1.0
0.0 0.0 1.0 1.0
0.0 1.0 1.0 1.0
1.0 1.0 0.0 1.0
